
     Program PWSCF v.7.4.1 starts on  5Jul2025 at 11:50:46 

     This program is part of the open-source Quantum ESPRESSO suite
     for quantum simulation of materials; please cite
         "P. Giannozzi et al., J. Phys.:Condens. Matter 21 395502 (2009);
         "P. Giannozzi et al., J. Phys.:Condens. Matter 29 465901 (2017);
         "P. Giannozzi et al., J. Chem. Phys. 152 154105 (2020);
          URL http://www.quantum-espresso.org", 
     in publications or presentations arising from this work. More details at
     http://www.quantum-espresso.org/quote

     Parallel version (MPI), running on     4 processors

     MPI processes distributed on     1 nodes
     314 MiB available memory on the printing compute node when the environment starts

     Waiting for input...
     Reading input from standard input

     Current dimensions of program PWSCF are:
     Max number of different atomic species (ntypx) = 10
     Max number of k-points (npk) =  40000
     Max angular momentum in pseudopotentials (lmaxx) =  4
     file H.pbe-kjpaw_psl.1.0.0.UPF: wavefunction(s)  1S renormalized
     file O.pbe-n-kjpaw_psl.1.0.0.UPF: wavefunction(s)  2S 2P renormalized

     R & G space division:  proc/nbgrp/npool/nimage =       4
     Subspace diagonalization in iterative solution of the eigenvalue problem:
     a serial algorithm will be used


     Parallelization info
     --------------------
     sticks:   dense  smooth     PW     G-vecs:    dense   smooth      PW
     Min         320     320     80                 8566     8566    1084
     Max         321     321     82                 8567     8567    1085
     Sum        1281    1281    325                34265    34265    4337

     Using Slab Decomposition



     bravais-lattice index     =            1
     lattice parameter (alat)  =      10.0000  a.u.
     unit-cell volume          =    1000.0000 (a.u.)^3
     number of atoms/cell      =            3
     number of atomic types    =            2
     number of electrons       =         8.00
     number of Kohn-Sham states=            4
     kinetic-energy cutoff     =      40.0000  Ry
     charge density cutoff     =     160.0000  Ry
     scf convergence threshold =      1.0E-06
     mixing beta               =       0.7000
     number of iterations used =            8  plain     mixing
     energy convergence thresh.=      1.0E-04
     force convergence thresh. =      1.0E-03
     Exchange-correlation= SLA  PW   PBX  PBC
                           (   1   4   3   4   0   0   0)
     nstep                     =           50


     celldm(1)=  10.000000  celldm(2)=   0.000000  celldm(3)=   0.000000
     celldm(4)=   0.000000  celldm(5)=   0.000000  celldm(6)=   0.000000

     crystal axes: (cart. coord. in units of alat)
               a(1) = (   1.000000   0.000000   0.000000 )  
               a(2) = (   0.000000   1.000000   0.000000 )  
               a(3) = (   0.000000   0.000000   1.000000 )  

     reciprocal axes: (cart. coord. in units 2 pi/alat)
               b(1) = (  1.000000  0.000000  0.000000 )  
               b(2) = (  0.000000  1.000000  0.000000 )  
               b(3) = (  0.000000  0.000000  1.000000 )  


     PseudoPot. # 1 for H  read from file:
     ./H.pbe-kjpaw_psl.1.0.0.UPF
     MD5 check sum: d81a744832360e4a8af0b0b5b123bc2a
     Pseudo is Projector augmented-wave, Zval =  1.0
     Generated using &quot;atomic&quot; code by A. Dal Corso  v.6.3MaX
     Shape of augmentation charge: PSQ
     Using radial grid of  929 points,  2 beta functions with: 
                l(1) =   0
                l(2) =   0
     Q(r) pseudized with 0 coefficients 


     PseudoPot. # 2 for O  read from file:
     ./O.pbe-n-kjpaw_psl.1.0.0.UPF
     MD5 check sum: e99d9cef9b487d1ca56f5b95ecd0fd7a
     Pseudo is Projector augmented-wave + core cor, Zval =  6.0
     Generated using &quot;atomic&quot; code by A. Dal Corso  v.6.3
     Shape of augmentation charge: PSQ
     Using radial grid of 1095 points,  4 beta functions with: 
                l(1) =   0
                l(2) =   0
                l(3) =   1
                l(4) =   1
     Q(r) pseudized with 0 coefficients 


     atomic species   valence    mass     pseudopotential
     H                 1.00     1.00784     H ( 1.00)
     O                 6.00    15.99900     O ( 1.00)

     No symmetry found



   Cartesian axes

     site n.     atom                  positions (alat units)
         1        O      tau(   1) = (   0.0000000   0.0000000   0.0000000  )
         2        H      tau(   2) = (  -0.1889726   0.0018897   0.0037795  )
         3        H      tau(   3) = (   0.1889726   0.0018897   0.0056692  )

     number of k points=     1
                       cart. coord. in units 2pi/alat
        k(    1) = (   0.0000000   0.0000000   0.0000000), wk =   2.0000000

     Dense  grid:    34265 G-vectors     FFT dimensions: (  45,  45,  45)

     Estimated max dynamical RAM per process >      12.54 MB

     Estimated total dynamical RAM >      50.18 MB

     Check: negative core charge=   -0.000006

     Initial potential from superposition of free atoms

     starting charge       8.0000, renormalised to       8.0000

     negative rho (up, down):  1.782E-04 0.000E+00
     Starting wfcs are    6 randomized atomic wfcs
     Checking if some PAW data can be deallocated... 

     total cpu time spent up to now is        0.3 secs

     Self-consistent Calculation

     iteration #  1     ecut=    40.00 Ry     beta= 0.70
     Davidson diagonalization with overlap
     ethr =  1.00E-02,  avg # of iterations =  2.0

     negative rho (up, down):  1.414E-03 0.000E+00

     total cpu time spent up to now is        0.4 secs

     total energy              =     -43.65382191 Ry
     estimated scf accuracy    <       0.57512299 Ry

     iteration #  2     ecut=    40.00 Ry     beta= 0.70
     Davidson diagonalization with overlap
     ethr =  7.19E-03,  avg # of iterations =  4.0

     negative rho (up, down):  1.352E-03 0.000E+00

     total cpu time spent up to now is        0.5 secs

     total energy              =     -43.89876236 Ry
     estimated scf accuracy    <       0.14337424 Ry

     iteration #  3     ecut=    40.00 Ry     beta= 0.70
     Davidson diagonalization with overlap
     ethr =  1.79E-03,  avg # of iterations =  2.0

     negative rho (up, down):  1.549E-03 0.000E+00

     total cpu time spent up to now is        0.6 secs

     total energy              =     -43.89116659 Ry
     estimated scf accuracy    <       0.03657425 Ry

     iteration #  4     ecut=    40.00 Ry     beta= 0.70
     Davidson diagonalization with overlap
     ethr =  4.57E-04,  avg # of iterations =  6.0

     negative rho (up, down):  1.868E-03 0.000E+00

     total cpu time spent up to now is        0.7 secs

     total energy              =     -43.90454656 Ry
     estimated scf accuracy    <       0.04839528 Ry

     iteration #  5     ecut=    40.00 Ry     beta= 0.70
     Davidson diagonalization with overlap
     ethr =  4.57E-04,  avg # of iterations =  3.0

     negative rho (up, down):  2.217E-03 0.000E+00

     total cpu time spent up to now is        0.8 secs

     total energy              =     -43.91271768 Ry
     estimated scf accuracy    <       0.00108677 Ry

     iteration #  6     ecut=    40.00 Ry     beta= 0.70
     Davidson diagonalization with overlap
     ethr =  1.36E-05,  avg # of iterations =  8.0

     negative rho (up, down):  2.025E-03 0.000E+00

     total cpu time spent up to now is        0.9 secs

     total energy              =     -43.92068883 Ry
     estimated scf accuracy    <       0.04220588 Ry

     iteration #  7     ecut=    40.00 Ry     beta= 0.70
     Davidson diagonalization with overlap
     ethr =  1.36E-05,  avg # of iterations =  7.0

     negative rho (up, down):  2.046E-03 0.000E+00

     total cpu time spent up to now is        1.0 secs

     total energy              =     -43.91901210 Ry
     estimated scf accuracy    <       0.01691537 Ry

     iteration #  8     ecut=    40.00 Ry     beta= 0.70
     Davidson diagonalization with overlap
     ethr =  1.36E-05,  avg # of iterations =  5.0

     negative rho (up, down):  1.920E-03 0.000E+00

     total cpu time spent up to now is        1.1 secs

     total energy              =     -43.91717790 Ry
     estimated scf accuracy    <       0.00861310 Ry

     iteration #  9     ecut=    40.00 Ry     beta= 0.70
     Davidson diagonalization with overlap
     ethr =  1.36E-05,  avg # of iterations =  5.0

     negative rho (up, down):  1.908E-03 0.000E+00

     total cpu time spent up to now is        1.2 secs

     total energy              =     -43.91775541 Ry
     estimated scf accuracy    <       0.00135935 Ry

     iteration # 10     ecut=    40.00 Ry     beta= 0.70
     Davidson diagonalization with overlap
     ethr =  1.36E-05,  avg # of iterations =  2.0

     negative rho (up, down):  1.906E-03 0.000E+00

     total cpu time spent up to now is        1.3 secs

     total energy              =     -43.91787681 Ry
     estimated scf accuracy    <       0.00053521 Ry

     iteration # 11     ecut=    40.00 Ry     beta= 0.70
     Davidson diagonalization with overlap
     ethr =  6.69E-06,  avg # of iterations =  1.0

     negative rho (up, down):  1.920E-03 0.000E+00

     total cpu time spent up to now is        1.4 secs

     total energy              =     -43.91801799 Ry
     estimated scf accuracy    <       0.00051029 Ry

     iteration # 12     ecut=    40.00 Ry     beta= 0.70
     Davidson diagonalization with overlap
     ethr =  6.38E-06,  avg # of iterations =  1.0

     negative rho (up, down):  1.901E-03 0.000E+00

     total cpu time spent up to now is        1.6 secs

     total energy              =     -43.91794837 Ry
     estimated scf accuracy    <       0.00062415 Ry

     iteration # 13     ecut=    40.00 Ry     beta= 0.70
     Davidson diagonalization with overlap
     ethr =  6.38E-06,  avg # of iterations =  1.0

     negative rho (up, down):  1.868E-03 0.000E+00

     total cpu time spent up to now is        1.6 secs

     total energy              =     -43.91780591 Ry
     estimated scf accuracy    <       0.00034614 Ry

     iteration # 14     ecut=    40.00 Ry     beta= 0.70
     Davidson diagonalization with overlap
     ethr =  4.33E-06,  avg # of iterations =  1.0

     negative rho (up, down):  1.862E-03 0.000E+00

     total cpu time spent up to now is        1.7 secs

     total energy              =     -43.91783188 Ry
     estimated scf accuracy    <       0.00006709 Ry

     iteration # 15     ecut=    40.00 Ry     beta= 0.70
     Davidson diagonalization with overlap
     ethr =  8.39E-07,  avg # of iterations =  7.0

     negative rho (up, down):  1.853E-03 0.000E+00

     total cpu time spent up to now is        1.8 secs

     total energy              =     -43.91787639 Ry
     estimated scf accuracy    <       0.00000637 Ry

     iteration # 16     ecut=    40.00 Ry     beta= 0.70
     Davidson diagonalization with overlap
     ethr =  7.96E-08,  avg # of iterations =  4.0

     negative rho (up, down):  1.853E-03 0.000E+00

     total cpu time spent up to now is        1.9 secs

     total energy              =     -43.91788126 Ry
     estimated scf accuracy    <       0.00000485 Ry

     iteration # 17     ecut=    40.00 Ry     beta= 0.70
     Davidson diagonalization with overlap
     ethr =  6.06E-08,  avg # of iterations =  2.0

     negative rho (up, down):  1.851E-03 0.000E+00

     total cpu time spent up to now is        1.9 secs

     total energy              =     -43.91788201 Ry
     estimated scf accuracy    <       0.00000575 Ry

     iteration # 18     ecut=    40.00 Ry     beta= 0.70
     Davidson diagonalization with overlap
     ethr =  6.06E-08,  avg # of iterations =  1.0

     negative rho (up, down):  1.852E-03 0.000E+00

     total cpu time spent up to now is        2.0 secs

     total energy              =     -43.91788200 Ry
     estimated scf accuracy    <       0.00000657 Ry

     iteration # 19     ecut=    40.00 Ry     beta= 0.70
     Davidson diagonalization with overlap
     ethr =  6.06E-08,  avg # of iterations =  1.0

     negative rho (up, down):  1.859E-03 0.000E+00

     total cpu time spent up to now is        2.1 secs

     total energy              =     -43.91788410 Ry
     estimated scf accuracy    <       0.00000596 Ry

     iteration # 20     ecut=    40.00 Ry     beta= 0.70
     Davidson diagonalization with overlap
     ethr =  6.06E-08,  avg # of iterations =  9.0

     negative rho (up, down):  1.850E-03 0.000E+00

     total cpu time spent up to now is        2.1 secs

     total energy              =     -43.91787840 Ry
     estimated scf accuracy    <       0.00004576 Ry

     iteration # 21     ecut=    40.00 Ry     beta= 0.70
     Davidson diagonalization with overlap
     ethr =  6.06E-08,  avg # of iterations =  5.0

     negative rho (up, down):  1.848E-03 0.000E+00

     total cpu time spent up to now is        2.2 secs

     total energy              =     -43.91787934 Ry
     estimated scf accuracy    <       0.00000742 Ry

     iteration # 22     ecut=    40.00 Ry     beta= 0.70
     Davidson diagonalization with overlap
     ethr =  6.06E-08,  avg # of iterations =  2.0

     negative rho (up, down):  1.848E-03 0.000E+00

     total cpu time spent up to now is        2.3 secs

     total energy              =     -43.91787986 Ry
     estimated scf accuracy    <       0.00000258 Ry

     iteration # 23     ecut=    40.00 Ry     beta= 0.70
     Davidson diagonalization with overlap
     ethr =  3.22E-08,  avg # of iterations =  2.0

     negative rho (up, down):  1.845E-03 0.000E+00

     total cpu time spent up to now is        2.4 secs

     total energy              =     -43.91787923 Ry
     estimated scf accuracy    <       0.00000153 Ry

     iteration # 24     ecut=    40.00 Ry     beta= 0.70
     Davidson diagonalization with overlap
     ethr =  1.91E-08,  avg # of iterations =  4.0

     negative rho (up, down):  1.846E-03 0.000E+00

     total cpu time spent up to now is        2.4 secs

     total energy              =     -43.91788026 Ry
     estimated scf accuracy    <       0.00000193 Ry

     iteration # 25     ecut=    40.00 Ry     beta= 0.70
     Davidson diagonalization with overlap
     ethr =  1.91E-08,  avg # of iterations =  1.0

     negative rho (up, down):  1.841E-03 0.000E+00

     total cpu time spent up to now is        2.5 secs

     End of self-consistent calculation

          k = 0.0000 0.0000 0.0000 (  4337 PWs)   bands (ev):

   -23.1707 -13.5784  -5.8704  -5.8666

     highest occupied level (ev):    -5.8666

!    total energy              =     -43.91787982 Ry
     total all-electron energy =      -152.764761 Ry
     estimated scf accuracy    <       0.00000074 Ry

     The total energy is the sum of the following terms:
     one-electron contribution =     -45.91044129 Ry
     hartree contribution      =      25.03370831 Ry
     xc contribution           =      -8.79732257 Ry
     ewald contribution        =      -4.67169618 Ry
     one-center paw contrib.   =      -9.57212809 Ry

     convergence has been achieved in  25 iterations

     negative rho (up, down):  1.841E-03 0.000E+00

     Forces acting on atoms (cartesian axes, Ry/au):

     atom    1 type  2   force =     0.00044690   -0.00440249   -0.01101354
     atom    2 type  1   force =     0.11449943    0.00220315    0.00606211
     atom    3 type  1   force =    -0.11494633    0.00219934    0.00495143

     Total force =     0.162894     Total SCF correction =     0.001281

     BFGS Geometry Optimization
     Energy error            =      2.7E-02 Ry
     Gradient error          =      1.1E-01 Ry/Bohr

     number of scf cycles    =   1
     number of bfgs steps    =   0

     energy             new  =     -43.9178798241 Ry

     new trust radius        =       0.1150739459 bohr
     new conv_thr            =       0.0000010000 Ry


ATOMIC_POSITIONS (angstrom)
O                0.0002364895       -0.0023296980       -0.0058281118
H               -0.9394095100        0.0111658584        0.0232079286
H                0.9391730205        0.0111638396        0.0326201832



     Writing config-only to output data dir ./h2o.save/ :
     XML data file
     NEW-OLD atomic charge density approx. for the potential

     Check: negative core charge=   -0.000006

     negative rho (up, down):  4.990E-03 0.000E+00

     total cpu time spent up to now is        2.6 secs

     Self-consistent Calculation

     iteration #  1     ecut=    40.00 Ry     beta= 0.70
     Davidson diagonalization with overlap
     ethr =  1.00E-06,  avg # of iterations =  9.0

     negative rho (up, down):  2.339E-03 0.000E+00

     total cpu time spent up to now is        2.7 secs

     total energy              =     -43.93046462 Ry
     estimated scf accuracy    <       0.00502120 Ry

     iteration #  2     ecut=    40.00 Ry     beta= 0.70
     Davidson diagonalization with overlap
     ethr =  6.28E-05,  avg # of iterations =  3.0

     negative rho (up, down):  2.087E-03 0.000E+00

     total cpu time spent up to now is        2.8 secs

     total energy              =     -43.93192510 Ry
     estimated scf accuracy    <       0.00066312 Ry

     iteration #  3     ecut=    40.00 Ry     beta= 0.70
     Davidson diagonalization with overlap
     ethr =  8.29E-06,  avg # of iterations =  5.0

     negative rho (up, down):  2.000E-03 0.000E+00

     total cpu time spent up to now is        2.9 secs

     total energy              =     -43.93208927 Ry
     estimated scf accuracy    <       0.00028226 Ry

     iteration #  4     ecut=    40.00 Ry     beta= 0.70
     Davidson diagonalization with overlap
     ethr =  3.53E-06,  avg # of iterations =  4.0

     negative rho (up, down):  1.972E-03 0.000E+00

     total cpu time spent up to now is        2.9 secs

     total energy              =     -43.93217785 Ry
     estimated scf accuracy    <       0.00003726 Ry

     iteration #  5     ecut=    40.00 Ry     beta= 0.70
     Davidson diagonalization with overlap
     ethr =  4.66E-07,  avg # of iterations =  4.0

     negative rho (up, down):  1.978E-03 0.000E+00

     total cpu time spent up to now is        3.0 secs

     total energy              =     -43.93217246 Ry
     estimated scf accuracy    <       0.00002854 Ry

     iteration #  6     ecut=    40.00 Ry     beta= 0.70
     Davidson diagonalization with overlap
     ethr =  3.57E-07,  avg # of iterations =  4.0

     negative rho (up, down):  1.978E-03 0.000E+00

     total cpu time spent up to now is        3.1 secs

     End of self-consistent calculation

          k = 0.0000 0.0000 0.0000 (  4337 PWs)   bands (ev):

   -23.8024 -14.3250  -6.0875  -6.0782

     highest occupied level (ev):    -6.0782

!    total energy              =     -43.93218172 Ry
     total all-electron energy =      -152.779063 Ry
     estimated scf accuracy    <       0.00000035 Ry

     The total energy is the sum of the following terms:
     one-electron contribution =     -47.22208770 Ry
     hartree contribution      =      25.62365192 Ry
     xc contribution           =      -8.90554826 Ry
     ewald contribution        =      -3.85541088 Ry
     one-center paw contrib.   =      -9.57278681 Ry

     convergence has been achieved in   6 iterations

     negative rho (up, down):  1.978E-03 0.000E+00

     Forces acting on atoms (cartesian axes, Ry/au):

     atom    1 type  2   force =    -0.00055158   -0.00879638   -0.02191691
     atom    2 type  1   force =    -0.00033524    0.00437064    0.01087710
     atom    3 type  1   force =     0.00088682    0.00442573    0.01103982

     Total force =     0.028945     Total SCF correction =     0.000610
     Energy error            =      1.4E-02 Ry
     Gradient error          =      2.2E-02 Ry/Bohr

     number of scf cycles    =   2
     number of bfgs steps    =   1

     energy             old  =     -43.9178798241 Ry
     energy             new  =     -43.9321817151 Ry

     CASE: energy            _new < energy            _old

     new trust radius        =       0.0242549120 bohr
     new conv_thr            =       0.0000002192 Ry


ATOMIC_POSITIONS (angstrom)
O               -0.0000509023       -0.0071089628       -0.0177368071
H               -0.9376416204        0.0135407924        0.0291282078
H                0.9376925227        0.0135681704        0.0386085993



     Writing config-only to output data dir ./h2o.save/ :
     XML data file
     NEW-OLD atomic charge density approx. for the potential

     Check: negative core charge=   -0.000006

     negative rho (up, down):  1.992E-03 0.000E+00

     total cpu time spent up to now is        3.1 secs

     Self-consistent Calculation

     iteration #  1     ecut=    40.00 Ry     beta= 0.70
     Davidson diagonalization with overlap
     ethr =  1.00E-06,  avg # of iterations =  8.0

     negative rho (up, down):  1.987E-03 0.000E+00

     total cpu time spent up to now is        3.2 secs

     total energy              =     -43.93323153 Ry
     estimated scf accuracy    <       0.00021726 Ry

     iteration #  2     ecut=    40.00 Ry     beta= 0.70
     Davidson diagonalization with overlap
     ethr =  2.72E-06,  avg # of iterations =  2.0

     negative rho (up, down):  1.991E-03 0.000E+00

     total cpu time spent up to now is        3.3 secs

     total energy              =     -43.93326124 Ry
     estimated scf accuracy    <       0.00000426 Ry

     iteration #  3     ecut=    40.00 Ry     beta= 0.70
     Davidson diagonalization with overlap
     ethr =  5.32E-08,  avg # of iterations =  8.0

     negative rho (up, down):  1.990E-03 0.000E+00

     total cpu time spent up to now is        3.4 secs

     total energy              =     -43.93327163 Ry
     estimated scf accuracy    <       0.00000467 Ry

     iteration #  4     ecut=    40.00 Ry     beta= 0.70
     Davidson diagonalization with overlap
     ethr =  5.32E-08,  avg # of iterations =  2.0

     negative rho (up, down):  1.991E-03 0.000E+00

     total cpu time spent up to now is        3.5 secs

     total energy              =     -43.93327147 Ry
     estimated scf accuracy    <       0.00000088 Ry

     iteration #  5     ecut=    40.00 Ry     beta= 0.70
     Davidson diagonalization with overlap
     ethr =  1.10E-08,  avg # of iterations =  6.0

     negative rho (up, down):  1.992E-03 0.000E+00

     total cpu time spent up to now is        3.5 secs

     total energy              =     -43.93327176 Ry
     estimated scf accuracy    <       0.00000042 Ry

     iteration #  6     ecut=    40.00 Ry     beta= 0.70
     Davidson diagonalization with overlap
     ethr =  5.25E-09,  avg # of iterations =  2.0

     negative rho (up, down):  1.993E-03 0.000E+00

     total cpu time spent up to now is        3.6 secs

     End of self-consistent calculation

          k = 0.0000 0.0000 0.0000 (  4337 PWs)   bands (ev):

   -23.8266 -14.3343  -6.1129  -6.0924

     highest occupied level (ev):    -6.0924

!    total energy              =     -43.93327175 Ry
     total all-electron energy =      -152.780153 Ry
     estimated scf accuracy    <       0.00000005 Ry

     The total energy is the sum of the following terms:
     one-electron contribution =     -47.23482679 Ry
     hartree contribution      =      25.62597459 Ry
     xc contribution           =      -8.90626079 Ry
     ewald contribution        =      -3.84522682 Ry
     one-center paw contrib.   =      -9.57293194 Ry

     convergence has been achieved in   6 iterations

     negative rho (up, down):  1.993E-03 0.000E+00

     Forces acting on atoms (cartesian axes, Ry/au):

     atom    1 type  2   force =     0.00178590   -0.01364256   -0.03395023
     atom    2 type  1   force =    -0.00320322    0.00683947    0.01696956
     atom    3 type  1   force =     0.00141731    0.00680310    0.01698067

     Total force =     0.044984     Total SCF correction =     0.000984
     Energy error            =      1.1E-03 Ry
     Gradient error          =      3.4E-02 Ry/Bohr

     number of scf cycles    =   3
     number of bfgs steps    =   2

     energy             old  =     -43.9321817151 Ry
     energy             new  =     -43.9332717546 Ry

     CASE: energy            _new < energy            _old


     WARNING: bfgs curvature condition failed, Theta= 0.520
     new trust radius        =       0.0016399478 bohr
     new conv_thr            =       0.0000001090 Ry


ATOMIC_POSITIONS (angstrom)
O               -0.0007469105       -0.0072983122       -0.0182193382
H               -0.9368776351        0.0136190992        0.0293368500
H                0.9376245456        0.0136792130        0.0388824882



     Writing config-only to output data dir ./h2o.save/ :
     XML data file
     NEW-OLD atomic charge density approx. for the potential

     Check: negative core charge=   -0.000006

     negative rho (up, down):  1.996E-03 0.000E+00

     total cpu time spent up to now is        3.7 secs

     Self-consistent Calculation

     iteration #  1     ecut=    40.00 Ry     beta= 0.70
     Davidson diagonalization with overlap
     ethr =  1.00E-06,  avg # of iterations =  2.0

     Threshold (ethr) on eigenvalues was too large:
     Diagonalizing with lowered threshold

     Davidson diagonalization with overlap
     ethr =  5.05E-09,  avg # of iterations =  7.0

     negative rho (up, down):  1.996E-03 0.000E+00

     total cpu time spent up to now is        3.8 secs

     total energy              =     -43.93331243 Ry
     estimated scf accuracy    <       0.00000183 Ry

     iteration #  2     ecut=    40.00 Ry     beta= 0.70
     Davidson diagonalization with overlap
     ethr =  2.29E-08,  avg # of iterations =  2.0

     negative rho (up, down):  1.994E-03 0.000E+00

     total cpu time spent up to now is        3.9 secs

     End of self-consistent calculation

          k = 0.0000 0.0000 0.0000 (  4337 PWs)   bands (ev):

   -23.8292 -14.3372  -6.1129  -6.0919

     highest occupied level (ev):    -6.0919

!    total energy              =     -43.93331262 Ry
     total all-electron energy =      -152.780194 Ry
     estimated scf accuracy    <       0.00000007 Ry

     The total energy is the sum of the following terms:
     one-electron contribution =     -47.24316530 Ry
     hartree contribution      =      25.62954008 Ry
     xc contribution           =      -8.90692043 Ry
     ewald contribution        =      -3.83983964 Ry
     one-center paw contrib.   =      -9.57292733 Ry

     convergence has been achieved in   2 iterations

     negative rho (up, down):  1.994E-03 0.000E+00

     Forces acting on atoms (cartesian axes, Ry/au):

     atom    1 type  2   force =     0.00566539   -0.01395998   -0.03477639
     atom    2 type  1   force =    -0.00603747    0.00706879    0.01754620
     atom    3 type  1   force =     0.00037208    0.00689118    0.01723019

     Total force =     0.046639     Total SCF correction =     0.000851
     Energy error            =      4.1E-05 Ry
     Gradient error          =      3.5E-02 Ry/Bohr

     number of scf cycles    =   4
     number of bfgs steps    =   3

     energy             old  =     -43.9332717546 Ry
     energy             new  =     -43.9333126151 Ry

     CASE: energy            _new < energy            _old


     WARNING: bfgs curvature condition failed, Theta= 0.960
     new trust radius        =       0.0018039426 bohr
     new conv_thr            =       0.0000000100 Ry


ATOMIC_POSITIONS (angstrom)
O               -0.0010539010       -0.0076242251       -0.0190624330
H               -0.9361536599        0.0137693949        0.0297397549
H                0.9372075610        0.0138548302        0.0393226781



     Writing config-only to output data dir ./h2o.save/ :
     XML data file
     NEW-OLD atomic charge density approx. for the potential

     Check: negative core charge=   -0.000006

     negative rho (up, down):  1.999E-03 0.000E+00

     total cpu time spent up to now is        4.0 secs

     Self-consistent Calculation

     iteration #  1     ecut=    40.00 Ry     beta= 0.70
     Davidson diagonalization with overlap
     ethr =  1.00E-06,  avg # of iterations =  2.0

     Threshold (ethr) on eigenvalues was too large:
     Diagonalizing with lowered threshold

     Davidson diagonalization with overlap
     ethr =  7.76E-09,  avg # of iterations =  7.0

     negative rho (up, down):  2.000E-03 0.000E+00

     total cpu time spent up to now is        4.1 secs

     total energy              =     -43.93339351 Ry
     estimated scf accuracy    <       0.00000134 Ry

     iteration #  2     ecut=    40.00 Ry     beta= 0.70
     Davidson diagonalization with overlap
     ethr =  1.67E-08,  avg # of iterations =  2.0

     negative rho (up, down):  2.000E-03 0.000E+00

     total cpu time spent up to now is        4.1 secs

     total energy              =     -43.93339371 Ry
     estimated scf accuracy    <       0.00000008 Ry

     iteration #  3     ecut=    40.00 Ry     beta= 0.70
     Davidson diagonalization with overlap
     ethr =  1.01E-09,  avg # of iterations =  6.0

     negative rho (up, down):  1.999E-03 0.000E+00

     total cpu time spent up to now is        4.2 secs

     total energy              =     -43.93339378 Ry
     estimated scf accuracy    <       0.00000003 Ry

     iteration #  4     ecut=    40.00 Ry     beta= 0.70
     Davidson diagonalization with overlap
     ethr =  3.85E-10,  avg # of iterations =  2.0

     negative rho (up, down):  1.999E-03 0.000E+00

     total cpu time spent up to now is        4.3 secs

     End of self-consistent calculation

          k = 0.0000 0.0000 0.0000 (  4337 PWs)   bands (ev):

   -23.8368 -14.3441  -6.1176  -6.0955

     highest occupied level (ev):    -6.0955

!    total energy              =     -43.93339379 Ry
     total all-electron energy =      -152.780275 Ry
     estimated scf accuracy    <          3.1E-09 Ry

     The total energy is the sum of the following terms:
     one-electron contribution =     -47.25448025 Ry
     hartree contribution      =      25.63469090 Ry
     xc contribution           =      -8.90791161 Ry
     ewald contribution        =      -3.83272753 Ry
     one-center paw contrib.   =      -9.57296530 Ry

     convergence has been achieved in   4 iterations

     negative rho (up, down):  1.999E-03 0.000E+00

     Forces acting on atoms (cartesian axes, Ry/au):

     atom    1 type  2   force =     0.00940551   -0.01415358   -0.03532631
     atom    2 type  1   force =    -0.00904906    0.00719593    0.01789351
     atom    3 type  1   force =    -0.00035645    0.00695765    0.01743280

     Total force =     0.048405     Total SCF correction =     0.000186
     Energy error            =      8.1E-05 Ry
     Gradient error          =      3.5E-02 Ry/Bohr

     number of scf cycles    =   5
     number of bfgs steps    =   4

     energy             old  =     -43.9333126151 Ry
     energy             new  =     -43.9333937868 Ry

     CASE: energy            _new < energy            _old

     new trust radius        =       0.0027059139 bohr
     new conv_thr            =       0.0000000100 Ry


ATOMIC_POSITIONS (angstrom)
O               -0.0012145884       -0.0081316661       -0.0203917349
H               -0.9353247368        0.0139958072        0.0303592100
H                0.9365393252        0.0141358589        0.0400325249



     Writing config-only to output data dir ./h2o.save/ :
     XML data file
     NEW-OLD atomic charge density approx. for the potential

     Check: negative core charge=   -0.000006

     negative rho (up, down):  2.006E-03 0.000E+00

     total cpu time spent up to now is        4.4 secs

     Self-consistent Calculation

     iteration #  1     ecut=    40.00 Ry     beta= 0.70
     Davidson diagonalization with overlap
     ethr =  1.00E-06,  avg # of iterations =  2.0

     Threshold (ethr) on eigenvalues was too large:
     Diagonalizing with lowered threshold

     Davidson diagonalization with overlap
     ethr =  1.90E-08,  avg # of iterations =  6.0

     negative rho (up, down):  2.006E-03 0.000E+00

     total cpu time spent up to now is        4.5 secs

     total energy              =     -43.93353102 Ry
     estimated scf accuracy    <       0.00000296 Ry

     iteration #  2     ecut=    40.00 Ry     beta= 0.70
     Davidson diagonalization with overlap
     ethr =  3.70E-08,  avg # of iterations =  2.0

     negative rho (up, down):  2.005E-03 0.000E+00

     total cpu time spent up to now is        4.5 secs

     total energy              =     -43.93353128 Ry
     estimated scf accuracy    <       0.00000016 Ry

     iteration #  3     ecut=    40.00 Ry     beta= 0.70
     Davidson diagonalization with overlap
     ethr =  2.05E-09,  avg # of iterations =  7.0

     negative rho (up, down):  2.004E-03 0.000E+00

     total cpu time spent up to now is        4.6 secs

     total energy              =     -43.93353150 Ry
     estimated scf accuracy    <       0.00000008 Ry

     iteration #  4     ecut=    40.00 Ry     beta= 0.70
     Davidson diagonalization with overlap
     ethr =  9.81E-10,  avg # of iterations =  1.0

     negative rho (up, down):  2.004E-03 0.000E+00

     total cpu time spent up to now is        4.7 secs

     total energy              =     -43.93353150 Ry
     estimated scf accuracy    <       0.00000002 Ry

     iteration #  5     ecut=    40.00 Ry     beta= 0.70
     Davidson diagonalization with overlap
     ethr =  2.07E-10,  avg # of iterations =  5.0

     negative rho (up, down):  2.004E-03 0.000E+00

     total cpu time spent up to now is        4.8 secs

     total energy              =     -43.93353151 Ry
     estimated scf accuracy    <       0.00000001 Ry

     iteration #  6     ecut=    40.00 Ry     beta= 0.70
     Davidson diagonalization with overlap
     ethr =  1.31E-10,  avg # of iterations =  2.0

     negative rho (up, down):  2.004E-03 0.000E+00

     total cpu time spent up to now is        4.9 secs

     End of self-consistent calculation

          k = 0.0000 0.0000 0.0000 (  4337 PWs)   bands (ev):

   -23.8447 -14.3510  -6.1219  -6.0982

     highest occupied level (ev):    -6.0982

!    total energy              =     -43.93353151 Ry
     total all-electron energy =      -152.780413 Ry
     estimated scf accuracy    <          2.8E-09 Ry

     The total energy is the sum of the following terms:
     one-electron contribution =     -47.26860238 Ry
     hartree contribution      =      25.64095789 Ry
     xc contribution           =      -8.90912174 Ry
     ewald contribution        =      -3.82376487 Ry
     one-center paw contrib.   =      -9.57300040 Ry

     convergence has been achieved in   6 iterations

     negative rho (up, down):  2.004E-03 0.000E+00

     Forces acting on atoms (cartesian axes, Ry/au):

     atom    1 type  2   force =     0.01070629   -0.01473688   -0.03681797
     atom    2 type  1   force =    -0.01115558    0.00750817    0.01868652
     atom    3 type  1   force =     0.00044929    0.00722870    0.01813145

     Total force =     0.050976     Total SCF correction =     0.000211
     Energy error            =      1.4E-04 Ry
     Gradient error          =      3.7E-02 Ry/Bohr

     number of scf cycles    =   6
     number of bfgs steps    =   5

     energy             old  =     -43.9333937868 Ry
     energy             new  =     -43.9335315067 Ry

     CASE: energy            _new < energy            _old


     WARNING: bfgs curvature condition failed, Theta= 0.575
     new trust radius        =       0.0040588709 bohr
     new conv_thr            =       0.0000000138 Ry


ATOMIC_POSITIONS (angstrom)
O               -0.0012149325       -0.0087643681       -0.0220249293
H               -0.9333989107        0.0142745322        0.0311089278
H                0.9346138433        0.0144898359        0.0409160014



     Writing config-only to output data dir ./h2o.save/ :
     XML data file
     NEW-OLD atomic charge density approx. for the potential

     Check: negative core charge=   -0.000006

     negative rho (up, down):  2.018E-03 0.000E+00

     total cpu time spent up to now is        5.0 secs

     Self-consistent Calculation

     iteration #  1     ecut=    40.00 Ry     beta= 0.70
     Davidson diagonalization with overlap
     ethr =  1.00E-06,  avg # of iterations =  2.0

     Threshold (ethr) on eigenvalues was too large:
     Diagonalizing with lowered threshold

     Davidson diagonalization with overlap
     ethr =  4.78E-08,  avg # of iterations =  5.0

     negative rho (up, down):  2.018E-03 0.000E+00

     total cpu time spent up to now is        5.1 secs

     total energy              =     -43.93367437 Ry
     estimated scf accuracy    <       0.00000789 Ry

     iteration #  2     ecut=    40.00 Ry     beta= 0.70
     Davidson diagonalization with overlap
     ethr =  9.86E-08,  avg # of iterations =  4.0

     negative rho (up, down):  2.015E-03 0.000E+00

     total cpu time spent up to now is        5.2 secs

     total energy              =     -43.93367580 Ry
     estimated scf accuracy    <       0.00000086 Ry

     iteration #  3     ecut=    40.00 Ry     beta= 0.70
     Davidson diagonalization with overlap
     ethr =  1.07E-08,  avg # of iterations =  5.0

     negative rho (up, down):  2.013E-03 0.000E+00

     total cpu time spent up to now is        5.3 secs

     total energy              =     -43.93367620 Ry
     estimated scf accuracy    <       0.00000012 Ry

     iteration #  4     ecut=    40.00 Ry     beta= 0.70
     Davidson diagonalization with overlap
     ethr =  1.56E-09,  avg # of iterations =  2.0

     negative rho (up, down):  2.014E-03 0.000E+00

     total cpu time spent up to now is        5.3 secs

     total energy              =     -43.93367629 Ry
     estimated scf accuracy    <       0.00000003 Ry

     iteration #  5     ecut=    40.00 Ry     beta= 0.70
     Davidson diagonalization with overlap
     ethr =  3.96E-10,  avg # of iterations =  4.0

     negative rho (up, down):  2.013E-03 0.000E+00

     total cpu time spent up to now is        5.4 secs

     End of self-consistent calculation

          k = 0.0000 0.0000 0.0000 (  4337 PWs)   bands (ev):

   -23.8653 -14.3724  -6.1309  -6.1049

     highest occupied level (ev):    -6.1049

!    total energy              =     -43.93367630 Ry
     total all-electron energy =      -152.780558 Ry
     estimated scf accuracy    <          4.3E-09 Ry

     The total energy is the sum of the following terms:
     one-electron contribution =     -47.30882897 Ry
     hartree contribution      =      25.65897044 Ry
     xc contribution           =      -8.91251747 Ry
     ewald contribution        =      -3.79824415 Ry
     one-center paw contrib.   =      -9.57305615 Ry

     convergence has been achieved in   5 iterations

     negative rho (up, down):  2.013E-03 0.000E+00

     Forces acting on atoms (cartesian axes, Ry/au):

     atom    1 type  2   force =     0.01095091   -0.01553929   -0.03887293
     atom    2 type  1   force =    -0.01547538    0.00791870    0.01971578
     atom    3 type  1   force =     0.00452447    0.00762059    0.01915715

     Total force =     0.054854     Total SCF correction =     0.000142
     Energy error            =      1.4E-04 Ry
     Gradient error          =      3.9E-02 Ry/Bohr

     number of scf cycles    =   7
     number of bfgs steps    =   6

     energy             old  =     -43.9335315067 Ry
     energy             new  =     -43.9336763023 Ry

     CASE: energy            _new < energy            _old


     WARNING: info=  9 for Hessian
     new trust radius        =       0.0060883063 bohr
     new conv_thr            =       0.0000000145 Ry


ATOMIC_POSITIONS (angstrom)
O               -0.0015665311       -0.0095278657       -0.0239419783
H               -0.9302955014        0.0145900606        0.0319146832
H                0.9318620325        0.0149378051        0.0420272951



     Writing config-only to output data dir ./h2o.save/ :
     XML data file
     NEW-OLD atomic charge density approx. for the potential

     Check: negative core charge=   -0.000006

     negative rho (up, down):  2.034E-03 0.000E+00

     total cpu time spent up to now is        5.5 secs

     Self-consistent Calculation

     iteration #  1     ecut=    40.00 Ry     beta= 0.70
     Davidson diagonalization with overlap
     ethr =  1.00E-06,  avg # of iterations =  3.0

     negative rho (up, down):  2.040E-03 0.000E+00

     total cpu time spent up to now is        5.6 secs

     total energy              =     -43.93376550 Ry
     estimated scf accuracy    <       0.00001210 Ry

     iteration #  2     ecut=    40.00 Ry     beta= 0.70
     Davidson diagonalization with overlap
     ethr =  1.51E-07,  avg # of iterations =  3.0

     negative rho (up, down):  2.031E-03 0.000E+00

     total cpu time spent up to now is        5.7 secs

     total energy              =     -43.93376971 Ry
     estimated scf accuracy    <       0.00000112 Ry

     iteration #  3     ecut=    40.00 Ry     beta= 0.70
     Davidson diagonalization with overlap
     ethr =  1.39E-08,  avg # of iterations =  3.0

     negative rho (up, down):  2.026E-03 0.000E+00

     total cpu time spent up to now is        5.7 secs

     total energy              =     -43.93377020 Ry
     estimated scf accuracy    <       0.00000008 Ry

     iteration #  4     ecut=    40.00 Ry     beta= 0.70
     Davidson diagonalization with overlap
     ethr =  1.00E-09,  avg # of iterations =  5.0

     negative rho (up, down):  2.026E-03 0.000E+00

     total cpu time spent up to now is        5.8 secs

     total energy              =     -43.93377026 Ry
     estimated scf accuracy    <       0.00000002 Ry

     iteration #  5     ecut=    40.00 Ry     beta= 0.70
     Davidson diagonalization with overlap
     ethr =  2.85E-10,  avg # of iterations =  5.0

     negative rho (up, down):  2.024E-03 0.000E+00

     total cpu time spent up to now is        5.9 secs

     End of self-consistent calculation

          k = 0.0000 0.0000 0.0000 (  4337 PWs)   bands (ev):

   -23.8970 -14.4062  -6.1438  -6.1152

     highest occupied level (ev):    -6.1152

!    total energy              =     -43.93377026 Ry
     total all-electron energy =      -152.780652 Ry
     estimated scf accuracy    <       0.00000001 Ry

     The total energy is the sum of the following terms:
     one-electron contribution =     -47.37103505 Ry
     hartree contribution      =      25.68662853 Ry
     xc contribution           =      -8.91770380 Ry
     ewald contribution        =      -3.75852294 Ry
     one-center paw contrib.   =      -9.57313700 Ry

     convergence has been achieved in   5 iterations

     negative rho (up, down):  2.024E-03 0.000E+00

     Forces acting on atoms (cartesian axes, Ry/au):

     atom    1 type  2   force =     0.01403438   -0.01663010   -0.04160057
     atom    2 type  1   force =    -0.02360006    0.00851374    0.02117413
     atom    3 type  1   force =     0.00956568    0.00811636    0.02042644

     Total force =     0.062101     Total SCF correction =     0.000109
     Energy error            =      9.4E-05 Ry
     Gradient error          =      4.2E-02 Ry/Bohr

     number of scf cycles    =   8
     number of bfgs steps    =   7

     energy             old  =     -43.9336763023 Ry
     energy             new  =     -43.9337702625 Ry

     CASE: energy            _new < energy            _old


     WARNING: info=  9 for Hessian
     uphill step: resetting bfgs history

     new trust radius        =       0.0091324594 bohr
     new conv_thr            =       0.0000000100 Ry


ATOMIC_POSITIONS (angstrom)
O               -0.0001218784       -0.0112397129       -0.0282242026
H               -0.9327248134        0.0154664363        0.0340942780
H                0.9328466918        0.0157732766        0.0441299246



     Writing config-only to output data dir ./h2o.save/ :
     XML data file
     NEW-OLD atomic charge density approx. for the potential

     Check: negative core charge=   -0.000006

     negative rho (up, down):  2.026E-03 0.000E+00

     total cpu time spent up to now is        6.0 secs

     Self-consistent Calculation

     iteration #  1     ecut=    40.00 Ry     beta= 0.70
     Davidson diagonalization with overlap
     ethr =  1.00E-06,  avg # of iterations =  6.0

     negative rho (up, down):  2.025E-03 0.000E+00

     total cpu time spent up to now is        6.1 secs

     total energy              =     -43.93449754 Ry
     estimated scf accuracy    <       0.00003607 Ry

     iteration #  2     ecut=    40.00 Ry     beta= 0.70
     Davidson diagonalization with overlap
     ethr =  4.51E-07,  avg # of iterations =  2.0

     negative rho (up, down):  2.028E-03 0.000E+00

     total cpu time spent up to now is        6.2 secs

     total energy              =     -43.93450208 Ry
     estimated scf accuracy    <       0.00000208 Ry

     iteration #  3     ecut=    40.00 Ry     beta= 0.70
     Davidson diagonalization with overlap
     ethr =  2.60E-08,  avg # of iterations =  6.0

     negative rho (up, down):  2.030E-03 0.000E+00

     total cpu time spent up to now is        6.2 secs

     total energy              =     -43.93450451 Ry
     estimated scf accuracy    <       0.00000078 Ry

     iteration #  4     ecut=    40.00 Ry     beta= 0.70
     Davidson diagonalization with overlap
     ethr =  9.75E-09,  avg # of iterations =  2.0

     negative rho (up, down):  2.031E-03 0.000E+00

     total cpu time spent up to now is        6.3 secs

     total energy              =     -43.93450466 Ry
     estimated scf accuracy    <       0.00000004 Ry

     iteration #  5     ecut=    40.00 Ry     beta= 0.70
     Davidson diagonalization with overlap
     ethr =  4.79E-10,  avg # of iterations =  8.0

     negative rho (up, down):  2.029E-03 0.000E+00

     total cpu time spent up to now is        6.4 secs

     total energy              =     -43.93450470 Ry
     estimated scf accuracy    <       0.00000011 Ry

     iteration #  6     ecut=    40.00 Ry     beta= 0.70
     Davidson diagonalization with overlap
     ethr =  4.79E-10,  avg # of iterations =  6.0

     negative rho (up, down):  2.030E-03 0.000E+00

     total cpu time spent up to now is        6.5 secs

     End of self-consistent calculation

          k = 0.0000 0.0000 0.0000 (  4337 PWs)   bands (ev):

   -23.8772 -14.3737  -6.1445  -6.1096

     highest occupied level (ev):    -6.1096

!    total energy              =     -43.93450474 Ry
     total all-electron energy =      -152.781386 Ry
     estimated scf accuracy    <          9.4E-09 Ry

     The total energy is the sum of the following terms:
     one-electron contribution =     -47.32056571 Ry
     hartree contribution      =      25.66372931 Ry
     xc contribution           =      -8.91366247 Ry
     ewald contribution        =      -3.79083080 Ry
     one-center paw contrib.   =      -9.57317506 Ry

     convergence has been achieved in   6 iterations

     negative rho (up, down):  2.030E-03 0.000E+00

     Forces acting on atoms (cartesian axes, Ry/au):

     atom    1 type  2   force =     0.00305975   -0.01803962   -0.04518974
     atom    2 type  1   force =    -0.01267286    0.00906257    0.02260147
     atom    3 type  1   force =     0.00961311    0.00897705    0.02258827

     Total force =     0.061755     Total SCF correction =     0.000250
     Energy error            =      7.3E-04 Ry
     Gradient error          =      4.5E-02 Ry/Bohr

     number of scf cycles    =   9
     number of bfgs steps    =   8

     energy             old  =     -43.9337702625 Ry
     energy             new  =     -43.9345047355 Ry

     CASE: energy            _new < energy            _old

     new trust radius        =       0.0136986891 bohr
     new conv_thr            =       0.0000000734 Ry


ATOMIC_POSITIONS (angstrom)
O                0.0011399300       -0.0138877029       -0.0348532662
H               -0.9354487035        0.0168082505        0.0374364311
H                0.9343087736        0.0170794524        0.0474168350



     Writing config-only to output data dir ./h2o.save/ :
     XML data file
     NEW-OLD atomic charge density approx. for the potential

     Check: negative core charge=   -0.000006

     negative rho (up, down):  2.034E-03 0.000E+00

     total cpu time spent up to now is        6.6 secs

     Self-consistent Calculation

     iteration #  1     ecut=    40.00 Ry     beta= 0.70
     Davidson diagonalization with overlap
     ethr =  1.00E-06,  avg # of iterations =  7.0

     negative rho (up, down):  2.026E-03 0.000E+00

     total cpu time spent up to now is        6.7 secs

     total energy              =     -43.93557994 Ry
     estimated scf accuracy    <       0.00008550 Ry

     iteration #  2     ecut=    40.00 Ry     beta= 0.70
     Davidson diagonalization with overlap
     ethr =  1.07E-06,  avg # of iterations =  2.0

     negative rho (up, down):  2.033E-03 0.000E+00

     total cpu time spent up to now is        6.7 secs

     total energy              =     -43.93559189 Ry
     estimated scf accuracy    <       0.00000478 Ry

     iteration #  3     ecut=    40.00 Ry     beta= 0.70
     Davidson diagonalization with overlap
     ethr =  5.97E-08,  avg # of iterations =  5.0

     negative rho (up, down):  2.036E-03 0.000E+00

     total cpu time spent up to now is        6.8 secs

     total energy              =     -43.93559715 Ry
     estimated scf accuracy    <       0.00000350 Ry

     iteration #  4     ecut=    40.00 Ry     beta= 0.70
     Davidson diagonalization with overlap
     ethr =  4.38E-08,  avg # of iterations =  2.0

     negative rho (up, down):  2.038E-03 0.000E+00

     total cpu time spent up to now is        6.9 secs

     total energy              =     -43.93559810 Ry
     estimated scf accuracy    <       0.00000008 Ry

     iteration #  5     ecut=    40.00 Ry     beta= 0.70
     Davidson diagonalization with overlap
     ethr =  1.01E-09,  avg # of iterations =  7.0

     negative rho (up, down):  2.038E-03 0.000E+00

     total cpu time spent up to now is        6.9 secs

     total energy              =     -43.93559837 Ry
     estimated scf accuracy    <       0.00000029 Ry

     iteration #  6     ecut=    40.00 Ry     beta= 0.70
     Davidson diagonalization with overlap
     ethr =  1.01E-09,  avg # of iterations =  1.0

     negative rho (up, down):  2.036E-03 0.000E+00

     total cpu time spent up to now is        7.0 secs

     total energy              =     -43.93559825 Ry
     estimated scf accuracy    <       0.00000022 Ry

     iteration #  7     ecut=    40.00 Ry     beta= 0.70
     Davidson diagonalization with overlap
     ethr =  1.01E-09,  avg # of iterations =  5.0

     negative rho (up, down):  2.036E-03 0.000E+00

     total cpu time spent up to now is        7.1 secs

     End of self-consistent calculation

          k = 0.0000 0.0000 0.0000 (  4337 PWs)   bands (ev):

   -23.8511 -14.3275  -6.1473  -6.1015

     highest occupied level (ev):    -6.1015

!    total energy              =     -43.93559833 Ry
     total all-electron energy =      -152.782480 Ry
     estimated scf accuracy    <       0.00000001 Ry

     The total energy is the sum of the following terms:
     one-electron contribution =     -47.25235724 Ry
     hartree contribution      =      25.63188101 Ry
     xc contribution           =      -8.90809810 Ry
     ewald contribution        =      -3.83376783 Ry
     one-center paw contrib.   =      -9.57325616 Ry

     convergence has been achieved in   7 iterations

     negative rho (up, down):  2.036E-03 0.000E+00

     Forces acting on atoms (cartesian axes, Ry/au):

     atom    1 type  2   force =    -0.00609627   -0.02009075   -0.05031471
     atom    2 type  1   force =    -0.00102881    0.00992342    0.02478654
     atom    3 type  1   force =     0.00712508    0.01016733    0.02552817

     Total force =     0.067023     Total SCF correction =     0.000261
     Energy error            =      1.1E-03 Ry
     Gradient error          =      5.0E-02 Ry/Bohr

     number of scf cycles    =  10
     number of bfgs steps    =   9

     energy             old  =     -43.9345047355 Ry
     energy             new  =     -43.9355983270 Ry

     CASE: energy            _new < energy            _old


     WARNING: bfgs curvature condition failed, Theta= 0.176
     new trust radius        =       0.0205480337 bohr
     new conv_thr            =       0.0000001094 Ry


ATOMIC_POSITIONS (angstrom)
O                0.0030222767       -0.0178594610       -0.0447989196
H               -0.9396461005        0.0188221334        0.0424530841
H                0.9366238238        0.0190373276        0.0523458356



     Writing config-only to output data dir ./h2o.save/ :
     XML data file
     NEW-OLD atomic charge density approx. for the potential

     Check: negative core charge=   -0.000006

     negative rho (up, down):  2.043E-03 0.000E+00

     total cpu time spent up to now is        7.2 secs

     Self-consistent Calculation

     iteration #  1     ecut=    40.00 Ry     beta= 0.70
     Davidson diagonalization with overlap
     ethr =  1.00E-06,  avg # of iterations =  8.0

     negative rho (up, down):  2.029E-03 0.000E+00

     total cpu time spent up to now is        7.3 secs

     total energy              =     -43.93721978 Ry
     estimated scf accuracy    <       0.00021198 Ry

     iteration #  2     ecut=    40.00 Ry     beta= 0.70
     Davidson diagonalization with overlap
     ethr =  2.65E-06,  avg # of iterations =  2.0

     negative rho (up, down):  2.039E-03 0.000E+00

     total cpu time spent up to now is        7.3 secs

     total energy              =     -43.93725772 Ry
     estimated scf accuracy    <       0.00001182 Ry

     iteration #  3     ecut=    40.00 Ry     beta= 0.70
     Davidson diagonalization with overlap
     ethr =  1.48E-07,  avg # of iterations =  5.0

     negative rho (up, down):  2.042E-03 0.000E+00

     total cpu time spent up to now is        7.4 secs

     total energy              =     -43.93726850 Ry
     estimated scf accuracy    <       0.00000780 Ry

     iteration #  4     ecut=    40.00 Ry     beta= 0.70
     Davidson diagonalization with overlap
     ethr =  9.74E-08,  avg # of iterations =  2.0

     negative rho (up, down):  2.044E-03 0.000E+00

     total cpu time spent up to now is        7.4 secs

     total energy              =     -43.93727003 Ry
     estimated scf accuracy    <       0.00000019 Ry

     iteration #  5     ecut=    40.00 Ry     beta= 0.70
     Davidson diagonalization with overlap
     ethr =  2.43E-09,  avg # of iterations =  9.0

     negative rho (up, down):  2.043E-03 0.000E+00

     total cpu time spent up to now is        7.5 secs

     total energy              =     -43.93727065 Ry
     estimated scf accuracy    <       0.00000054 Ry

     iteration #  6     ecut=    40.00 Ry     beta= 0.70
     Davidson diagonalization with overlap
     ethr =  2.43E-09,  avg # of iterations =  2.0

     negative rho (up, down):  2.043E-03 0.000E+00

     total cpu time spent up to now is        7.6 secs

     total energy              =     -43.93727056 Ry
     estimated scf accuracy    <       0.00000018 Ry

     iteration #  7     ecut=    40.00 Ry     beta= 0.70
     Davidson diagonalization with overlap
     ethr =  2.25E-09,  avg # of iterations =  3.0

     negative rho (up, down):  2.044E-03 0.000E+00

     total cpu time spent up to now is        7.7 secs

     End of self-consistent calculation

          k = 0.0000 0.0000 0.0000 (  4337 PWs)   bands (ev):

   -23.8101 -14.2525  -6.1531  -6.0886

     highest occupied level (ev):    -6.0886

!    total energy              =     -43.93727064 Ry
     total all-electron energy =      -152.784152 Ry
     estimated scf accuracy    <       0.00000001 Ry

     The total energy is the sum of the following terms:
     one-electron contribution =     -47.14326585 Ry
     hartree contribution      =      25.58083742 Ry
     xc contribution           =      -8.89924694 Ry
     ewald contribution        =      -3.90219404 Ry
     one-center paw contrib.   =      -9.57340123 Ry

     convergence has been achieved in   7 iterations

     negative rho (up, down):  2.044E-03 0.000E+00

     Forces acting on atoms (cartesian axes, Ry/au):

     atom    1 type  2   force =    -0.01893576   -0.02288426   -0.05723232
     atom    2 type  1   force =     0.01634347    0.01101471    0.02753932
     atom    3 type  1   force =     0.00259229    0.01186955    0.02969300

     Total force =     0.079586     Total SCF correction =     0.000116
     Energy error            =      1.7E-03 Ry
     Gradient error          =      5.7E-02 Ry/Bohr

     number of scf cycles    =  11
     number of bfgs steps    =  10

     energy             old  =     -43.9355983270 Ry
     energy             new  =     -43.9372706445 Ry

     CASE: energy            _new < energy            _old


     WARNING: bfgs curvature condition failed, Theta= 0.343
     new trust radius        =       0.0308220505 bohr
     new conv_thr            =       0.0000001672 Ry


ATOMIC_POSITIONS (angstrom)
O                0.0056764428       -0.0238162165       -0.0597488101
H               -0.9468919502        0.0218671907        0.0500478278
H                0.9412155074        0.0219490258        0.0597009823



     Writing config-only to output data dir ./h2o.save/ :
     XML data file
     NEW-OLD atomic charge density approx. for the potential

     Check: negative core charge=   -0.000006

     negative rho (up, down):  2.049E-03 0.000E+00

     total cpu time spent up to now is        7.8 secs

     Self-consistent Calculation

     iteration #  1     ecut=    40.00 Ry     beta= 0.70
     Davidson diagonalization with overlap
     ethr =  1.00E-06,  avg # of iterations =  9.0

     negative rho (up, down):  2.011E-03 0.000E+00

     total cpu time spent up to now is        7.9 secs

     total energy              =     -43.93955609 Ry
     estimated scf accuracy    <       0.00054639 Ry

     iteration #  2     ecut=    40.00 Ry     beta= 0.70
     Davidson diagonalization with overlap
     ethr =  6.83E-06,  avg # of iterations =  2.0

     negative rho (up, down):  2.021E-03 0.000E+00

     total cpu time spent up to now is        7.9 secs

     total energy              =     -43.93967161 Ry
     estimated scf accuracy    <       0.00003370 Ry

     iteration #  3     ecut=    40.00 Ry     beta= 0.70
     Davidson diagonalization with overlap
     ethr =  4.21E-07,  avg # of iterations =  5.0

     negative rho (up, down):  2.040E-03 0.000E+00

     total cpu time spent up to now is        8.0 secs

     total energy              =     -43.93969379 Ry
     estimated scf accuracy    <       0.00004068 Ry

     iteration #  4     ecut=    40.00 Ry     beta= 0.70
     Davidson diagonalization with overlap
     ethr =  4.21E-07,  avg # of iterations =  3.0

     negative rho (up, down):  2.036E-03 0.000E+00

     total cpu time spent up to now is        8.1 secs

     total energy              =     -43.93970724 Ry
     estimated scf accuracy    <       0.00000205 Ry

     iteration #  5     ecut=    40.00 Ry     beta= 0.70
     Davidson diagonalization with overlap
     ethr =  2.56E-08,  avg # of iterations =  6.0

     negative rho (up, down):  2.036E-03 0.000E+00

     total cpu time spent up to now is        8.1 secs

     total energy              =     -43.93970903 Ry
     estimated scf accuracy    <       0.00000085 Ry

     iteration #  6     ecut=    40.00 Ry     beta= 0.70
     Davidson diagonalization with overlap
     ethr =  1.06E-08,  avg # of iterations =  2.0

     negative rho (up, down):  2.038E-03 0.000E+00

     total cpu time spent up to now is        8.2 secs

     End of self-consistent calculation

          k = 0.0000 0.0000 0.0000 (  4337 PWs)   bands (ev):

   -23.7348 -14.1166  -6.1618  -6.0635

     highest occupied level (ev):    -6.0635

!    total energy              =     -43.93970910 Ry
     total all-electron energy =      -152.786591 Ry
     estimated scf accuracy    <       0.00000012 Ry

     The total energy is the sum of the following terms:
     one-electron contribution =     -46.94579668 Ry
     hartree contribution      =      25.48709933 Ry
     xc contribution           =      -8.88300320 Ry
     ewald contribution        =      -4.02434389 Ry
     one-center paw contrib.   =      -9.57366466 Ry

     convergence has been achieved in   6 iterations

     negative rho (up, down):  2.038E-03 0.000E+00

     Forces acting on atoms (cartesian axes, Ry/au):

     atom    1 type  2   force =    -0.03515337   -0.02597509   -0.06513598
     atom    2 type  1   force =     0.04308369    0.01203156    0.03025542
     atom    3 type  1   force =    -0.00793032    0.01394353    0.03488057

     Total force =     0.102681     Total SCF correction =     0.000819
     Energy error            =      2.4E-03 Ry
     Gradient error          =      6.5E-02 Ry/Bohr

     number of scf cycles    =  12
     number of bfgs steps    =  11

     energy             old  =     -43.9372706445 Ry
     energy             new  =     -43.9397091041 Ry

     CASE: energy            _new < energy            _old

     new trust radius        =       0.0462330758 bohr
     new conv_thr            =       0.0000002438 Ry


ATOMIC_POSITIONS (angstrom)
O                0.0105390572       -0.0326729858       -0.0820304803
H               -0.9557221772        0.0263264256        0.0612064833
H                0.9451831200        0.0263465602        0.0708239969



     Writing config-only to output data dir ./h2o.save/ :
     XML data file
     NEW-OLD atomic charge density approx. for the potential

     Check: negative core charge=   -0.000006

     negative rho (up, down):  2.046E-03 0.000E+00

     total cpu time spent up to now is        8.3 secs

     Self-consistent Calculation

     iteration #  1     ecut=    40.00 Ry     beta= 0.70
     Davidson diagonalization with overlap
     ethr =  1.00E-06,  avg # of iterations = 10.0

     negative rho (up, down):  1.971E-03 0.000E+00

     total cpu time spent up to now is        8.4 secs

     total energy              =     -43.94292827 Ry
     estimated scf accuracy    <       0.00113893 Ry

     iteration #  2     ecut=    40.00 Ry     beta= 0.70
     Davidson diagonalization with overlap
     ethr =  1.42E-05,  avg # of iterations =  3.0

     negative rho (up, down):  1.997E-03 0.000E+00

     total cpu time spent up to now is        8.5 secs

     total energy              =     -43.94318396 Ry
     estimated scf accuracy    <       0.00008968 Ry

     iteration #  3     ecut=    40.00 Ry     beta= 0.70
     Davidson diagonalization with overlap
     ethr =  1.12E-06,  avg # of iterations =  5.0

     negative rho (up, down):  2.015E-03 0.000E+00

     total cpu time spent up to now is        8.6 secs

     total energy              =     -43.94323717 Ry
     estimated scf accuracy    <       0.00005827 Ry

     iteration #  4     ecut=    40.00 Ry     beta= 0.70
     Davidson diagonalization with overlap
     ethr =  7.28E-07,  avg # of iterations =  2.0

     negative rho (up, down):  2.021E-03 0.000E+00

     total cpu time spent up to now is        8.6 secs

     total energy              =     -43.94324976 Ry
     estimated scf accuracy    <       0.00000131 Ry

     iteration #  5     ecut=    40.00 Ry     beta= 0.70
     Davidson diagonalization with overlap
     ethr =  1.64E-08,  avg # of iterations =  8.0

     negative rho (up, down):  2.013E-03 0.000E+00

     total cpu time spent up to now is        8.7 secs

     total energy              =     -43.94325240 Ry
     estimated scf accuracy    <       0.00000824 Ry

     iteration #  6     ecut=    40.00 Ry     beta= 0.70
     Davidson diagonalization with overlap
     ethr =  1.64E-08,  avg # of iterations =  9.0

     negative rho (up, down):  2.015E-03 0.000E+00

     total cpu time spent up to now is        8.8 secs

     total energy              =     -43.94325466 Ry
     estimated scf accuracy    <       0.00000039 Ry

     iteration #  7     ecut=    40.00 Ry     beta= 0.70
     Davidson diagonalization with overlap
     ethr =  4.91E-09,  avg # of iterations =  4.0

     negative rho (up, down):  2.015E-03 0.000E+00

     total cpu time spent up to now is        8.9 secs

     End of self-consistent calculation

          k = 0.0000 0.0000 0.0000 (  4337 PWs)   bands (ev):

   -23.6501 -13.9289  -6.1994  -6.0376

     highest occupied level (ev):    -6.0376

!    total energy              =     -43.94325477 Ry
     total all-electron energy =      -152.790136 Ry
     estimated scf accuracy    <       0.00000003 Ry

     The total energy is the sum of the following terms:
     one-electron contribution =     -46.69085125 Ry
     hartree contribution      =      25.36691492 Ry
     xc contribution           =      -8.86292113 Ry
     ewald contribution        =      -4.18208262 Ry
     one-center paw contrib.   =      -9.57431470 Ry

     convergence has been achieved in   7 iterations

     negative rho (up, down):  2.015E-03 0.000E+00

     Forces acting on atoms (cartesian axes, Ry/au):

     atom    1 type  2   force =    -0.06084667   -0.02925784   -0.07353973
     atom    2 type  1   force =     0.07823567    0.01250266    0.03163167
     atom    3 type  1   force =    -0.01738899    0.01675518    0.04190805

     Total force =     0.139941     Total SCF correction =     0.000489
     Energy error            =      3.5E-03 Ry
     Gradient error          =      7.8E-02 Ry/Bohr

     number of scf cycles    =  13
     number of bfgs steps    =  12

     energy             old  =     -43.9397091041 Ry
     energy             new  =     -43.9432547722 Ry

     CASE: energy            _new < energy            _old

     new trust radius        =       0.0693496137 bohr
     new conv_thr            =       0.0000003546 Ry


ATOMIC_POSITIONS (angstrom)
O                0.0175199790       -0.0459710358       -0.1155146416
H               -0.9675960934        0.0326700680        0.0770992293
H                0.9500761144        0.0333009677        0.0884154123



     Writing config-only to output data dir ./h2o.save/ :
     XML data file
     NEW-OLD atomic charge density approx. for the potential

     Check: negative core charge=   -0.000006

     negative rho (up, down):  2.044E-03 0.000E+00

     total cpu time spent up to now is        9.0 secs

     Self-consistent Calculation

     iteration #  1     ecut=    40.00 Ry     beta= 0.70
     Davidson diagonalization with overlap
     ethr =  1.00E-06,  avg # of iterations = 12.0

     negative rho (up, down):  1.922E-03 0.000E+00

     total cpu time spent up to now is        9.1 secs

     total energy              =     -43.94739345 Ry
     estimated scf accuracy    <       0.00265093 Ry

     iteration #  2     ecut=    40.00 Ry     beta= 0.70
     Davidson diagonalization with overlap
     ethr =  3.31E-05,  avg # of iterations =  3.0

     negative rho (up, down):  1.990E-03 0.000E+00

     total cpu time spent up to now is        9.2 secs

     total energy              =     -43.94808274 Ry
     estimated scf accuracy    <       0.00033753 Ry

     iteration #  3     ecut=    40.00 Ry     beta= 0.70
     Davidson diagonalization with overlap
     ethr =  4.22E-06,  avg # of iterations =  5.0

     negative rho (up, down):  1.998E-03 0.000E+00

     total cpu time spent up to now is        9.3 secs

     total energy              =     -43.94821570 Ry
     estimated scf accuracy    <       0.00007705 Ry

     iteration #  4     ecut=    40.00 Ry     beta= 0.70
     Davidson diagonalization with overlap
     ethr =  9.63E-07,  avg # of iterations =  2.0

     negative rho (up, down):  2.009E-03 0.000E+00

     total cpu time spent up to now is        9.3 secs

     total energy              =     -43.94822830 Ry
     estimated scf accuracy    <       0.00000564 Ry

     iteration #  5     ecut=    40.00 Ry     beta= 0.70
     Davidson diagonalization with overlap
     ethr =  7.05E-08,  avg # of iterations =  7.0

     negative rho (up, down):  2.001E-03 0.000E+00

     total cpu time spent up to now is        9.4 secs

     total energy              =     -43.94823204 Ry
     estimated scf accuracy    <       0.00001527 Ry

     iteration #  6     ecut=    40.00 Ry     beta= 0.70
     Davidson diagonalization with overlap
     ethr =  7.05E-08,  avg # of iterations =  6.0

     negative rho (up, down):  2.005E-03 0.000E+00

     total cpu time spent up to now is        9.5 secs

     total energy              =     -43.94823759 Ry
     estimated scf accuracy    <       0.00000284 Ry

     iteration #  7     ecut=    40.00 Ry     beta= 0.70
     Davidson diagonalization with overlap
     ethr =  3.55E-08,  avg # of iterations =  1.0

     negative rho (up, down):  2.006E-03 0.000E+00

     total cpu time spent up to now is        9.5 secs

     total energy              =     -43.94823665 Ry
     estimated scf accuracy    <       0.00000178 Ry

     iteration #  8     ecut=    40.00 Ry     beta= 0.70
     Davidson diagonalization with overlap
     ethr =  2.22E-08,  avg # of iterations =  3.0

     negative rho (up, down):  2.006E-03 0.000E+00

     total cpu time spent up to now is        9.6 secs

     End of self-consistent calculation

          k = 0.0000 0.0000 0.0000 (  4337 PWs)   bands (ev):

   -23.5316 -13.6255  -6.2885  -6.0040

     highest occupied level (ev):    -6.0040

!    total energy              =     -43.94823722 Ry
     total all-electron energy =      -152.795119 Ry
     estimated scf accuracy    <       0.00000002 Ry

     The total energy is the sum of the following terms:
     one-electron contribution =     -46.29221767 Ry
     hartree contribution      =      25.17535712 Ry
     xc contribution           =      -8.83171718 Ry
     ewald contribution        =      -4.42405090 Ry
     one-center paw contrib.   =      -9.57560860 Ry

     convergence has been achieved in   8 iterations

     negative rho (up, down):  2.006E-03 0.000E+00

     Forces acting on atoms (cartesian axes, Ry/au):

     atom    1 type  2   force =    -0.08736747   -0.03078622   -0.07768607
     atom    2 type  1   force =     0.12167842    0.01140985    0.02922639
     atom    3 type  1   force =    -0.03431095    0.01937637    0.04845968

     Total force =     0.185222     Total SCF correction =     0.000328
     Energy error            =      5.0E-03 Ry
     Gradient error          =      1.2E-01 Ry/Bohr

     number of scf cycles    =  14
     number of bfgs steps    =  13

     energy             old  =     -43.9432547722 Ry
     energy             new  =     -43.9482372219 Ry

     CASE: energy            _new < energy            _old

     new trust radius        =       0.1040244206 bohr
     new conv_thr            =       0.0000004982 Ry


ATOMIC_POSITIONS (angstrom)
O                0.0292120548       -0.0657898887       -0.1655218358
H               -0.9826641183        0.0413645048        0.0989667573
H                0.9534520635        0.0444253840        0.1165550785



     Writing config-only to output data dir ./h2o.save/ :
     XML data file
     NEW-OLD atomic charge density approx. for the potential

     Check: negative core charge=   -0.000006

     negative rho (up, down):  2.089E-03 0.000E+00

     total cpu time spent up to now is        9.7 secs

     Self-consistent Calculation

     iteration #  1     ecut=    40.00 Ry     beta= 0.70
     Davidson diagonalization with overlap
     ethr =  1.00E-06,  avg # of iterations = 14.0

     negative rho (up, down):  1.880E-03 0.000E+00

     total cpu time spent up to now is        9.8 secs

     total energy              =     -43.95171812 Ry
     estimated scf accuracy    <       0.00599524 Ry

     iteration #  2     ecut=    40.00 Ry     beta= 0.70
     Davidson diagonalization with overlap
     ethr =  7.49E-05,  avg # of iterations =  3.0

     negative rho (up, down):  1.986E-03 0.000E+00

     total cpu time spent up to now is        9.9 secs

     total energy              =     -43.95352234 Ry
     estimated scf accuracy    <       0.00090744 Ry

     iteration #  3     ecut=    40.00 Ry     beta= 0.70
     Davidson diagonalization with overlap
     ethr =  1.13E-05,  avg # of iterations =  3.0

     negative rho (up, down):  2.006E-03 0.000E+00

     total cpu time spent up to now is       10.0 secs

     total energy              =     -43.95376403 Ry
     estimated scf accuracy    <       0.00020950 Ry

     iteration #  4     ecut=    40.00 Ry     beta= 0.70
     Davidson diagonalization with overlap
     ethr =  2.62E-06,  avg # of iterations =  4.0

     negative rho (up, down):  2.022E-03 0.000E+00

     total cpu time spent up to now is       10.1 secs

     total energy              =     -43.95384066 Ry
     estimated scf accuracy    <       0.00001431 Ry

     iteration #  5     ecut=    40.00 Ry     beta= 0.70
     Davidson diagonalization with overlap
     ethr =  1.79E-07,  avg # of iterations =  5.0

     negative rho (up, down):  2.037E-03 0.000E+00

     total cpu time spent up to now is       10.1 secs

     total energy              =     -43.95384852 Ry
     estimated scf accuracy    <       0.00000197 Ry

     iteration #  6     ecut=    40.00 Ry     beta= 0.70
     Davidson diagonalization with overlap
     ethr =  2.46E-08,  avg # of iterations =  5.0

     negative rho (up, down):  2.038E-03 0.000E+00

     total cpu time spent up to now is       10.2 secs

     total energy              =     -43.95384805 Ry
     estimated scf accuracy    <       0.00000817 Ry

     iteration #  7     ecut=    40.00 Ry     beta= 0.70
     Davidson diagonalization with overlap
     ethr =  2.46E-08,  avg # of iterations =  6.0

     negative rho (up, down):  2.037E-03 0.000E+00

     total cpu time spent up to now is       10.3 secs

     End of self-consistent calculation

          k = 0.0000 0.0000 0.0000 (  4337 PWs)   bands (ev):

   -23.3749 -13.1405  -6.4913  -5.9687

     highest occupied level (ev):    -5.9687

!    total energy              =     -43.95384951 Ry
     total all-electron energy =      -152.800731 Ry
     estimated scf accuracy    <       0.00000014 Ry

     The total energy is the sum of the following terms:
     one-electron contribution =     -45.68235965 Ry
     hartree contribution      =      24.87632726 Ry
     xc contribution           =      -8.78467755 Ry
     ewald contribution        =      -4.78500728 Ry
     one-center paw contrib.   =      -9.57813229 Ry

     convergence has been achieved in   7 iterations

     negative rho (up, down):  2.037E-03 0.000E+00

     Forces acting on atoms (cartesian axes, Ry/au):

     atom    1 type  2   force =    -0.11160319   -0.02611376   -0.06614039
     atom    2 type  1   force =     0.16980207    0.00641948    0.01691313
     atom    3 type  1   force =    -0.05819888    0.01969428    0.04922725

     Total force =     0.229935     Total SCF correction =     0.001364
     Energy error            =      5.6E-03 Ry
     Gradient error          =      1.7E-01 Ry/Bohr

     number of scf cycles    =  15
     number of bfgs steps    =  14

     energy             old  =     -43.9482372219 Ry
     energy             new  =     -43.9538495098 Ry

     CASE: energy            _new < energy            _old

     new trust radius        =       0.1195008372 bohr
     new conv_thr            =       0.0000005612 Ry


ATOMIC_POSITIONS (angstrom)
O                0.0462034937       -0.0882456885       -0.2221430454
H               -0.9935043907        0.0492431967        0.1187426703
H                0.9473008970        0.0590024918        0.1534003751



     Writing config-only to output data dir ./h2o.save/ :
     XML data file
     NEW-OLD atomic charge density approx. for the potential

     Check: negative core charge=   -0.000006

     negative rho (up, down):  2.256E-03 0.000E+00

     total cpu time spent up to now is       10.4 secs

     Self-consistent Calculation

     iteration #  1     ecut=    40.00 Ry     beta= 0.70
     Davidson diagonalization with overlap
     ethr =  1.00E-06,  avg # of iterations = 17.0

     negative rho (up, down):  1.820E-03 0.000E+00

     total cpu time spent up to now is       10.6 secs

     total energy              =     -43.95458653 Ry
     estimated scf accuracy    <       0.00725864 Ry

     iteration #  2     ecut=    40.00 Ry     beta= 0.70
     Davidson diagonalization with overlap
     ethr =  9.07E-05,  avg # of iterations =  5.0

     negative rho (up, down):  1.904E-03 0.000E+00

     total cpu time spent up to now is       10.6 secs

     total energy              =     -43.95679262 Ry
     estimated scf accuracy    <       0.00271472 Ry

     iteration #  3     ecut=    40.00 Ry     beta= 0.70
     Davidson diagonalization with overlap
     ethr =  3.39E-05,  avg # of iterations =  2.0

     negative rho (up, down):  1.981E-03 0.000E+00

     total cpu time spent up to now is       10.7 secs

     total energy              =     -43.95698728 Ry
     estimated scf accuracy    <       0.00044662 Ry

     iteration #  4     ecut=    40.00 Ry     beta= 0.70
     Davidson diagonalization with overlap
     ethr =  5.58E-06,  avg # of iterations =  7.0

     negative rho (up, down):  1.960E-03 0.000E+00

     total cpu time spent up to now is       10.8 secs

     total energy              =     -43.95727578 Ry
     estimated scf accuracy    <       0.00044806 Ry

     iteration #  5     ecut=    40.00 Ry     beta= 0.70
     Davidson diagonalization with overlap
     ethr =  5.58E-06,  avg # of iterations =  2.0

     negative rho (up, down):  1.934E-03 0.000E+00

     total cpu time spent up to now is       10.9 secs

     total energy              =     -43.95727361 Ry
     estimated scf accuracy    <       0.00005932 Ry

     iteration #  6     ecut=    40.00 Ry     beta= 0.70
     Davidson diagonalization with overlap
     ethr =  7.42E-07,  avg # of iterations =  9.0

     negative rho (up, down):  1.937E-03 0.000E+00

     total cpu time spent up to now is       11.0 secs

     total energy              =     -43.95751572 Ry
     estimated scf accuracy    <       0.00057341 Ry

     iteration #  7     ecut=    40.00 Ry     beta= 0.70
     Davidson diagonalization with overlap
     ethr =  7.42E-07,  avg # of iterations =  2.0

     negative rho (up, down):  1.936E-03 0.000E+00

     total cpu time spent up to now is       11.1 secs

     total energy              =     -43.95749396 Ry
     estimated scf accuracy    <       0.00053859 Ry

     iteration #  8     ecut=    40.00 Ry     beta= 0.70
     Davidson diagonalization with overlap
     ethr =  7.42E-07,  avg # of iterations =  1.0

     negative rho (up, down):  1.937E-03 0.000E+00

     total cpu time spent up to now is       11.2 secs

     total energy              =     -43.95748536 Ry
     estimated scf accuracy    <       0.00050250 Ry

     iteration #  9     ecut=    40.00 Ry     beta= 0.70
     Davidson diagonalization with overlap
     ethr =  7.42E-07,  avg # of iterations =  1.0

     negative rho (up, down):  1.948E-03 0.000E+00

     total cpu time spent up to now is       11.3 secs

     total energy              =     -43.95735541 Ry
     estimated scf accuracy    <       0.00048124 Ry

     iteration # 10     ecut=    40.00 Ry     beta= 0.70
     Davidson diagonalization with overlap
     ethr =  7.42E-07,  avg # of iterations =  3.0

     negative rho (up, down):  1.962E-03 0.000E+00

[...]



     Writing config-only to output data dir ./h2o.save/ :
     XML data file
     NEW-OLD atomic charge density approx. for the potential

     Check: negative core charge=   -0.000006

     negative rho (up, down):  2.194E-03 0.000E+00

     total cpu time spent up to now is       28.9 secs

     Self-consistent Calculation

     iteration #  1     ecut=    40.00 Ry     beta= 0.70
     Davidson diagonalization with overlap
     ethr =  1.00E-06,  avg # of iterations =  5.0

     negative rho (up, down):  2.164E-03 0.000E+00

     total cpu time spent up to now is       29.0 secs

     total energy              =     -44.02996522 Ry
     estimated scf accuracy    <       0.00005137 Ry

     iteration #  2     ecut=    40.00 Ry     beta= 0.70
     Davidson diagonalization with overlap
     ethr =  6.42E-07,  avg # of iterations =  6.0

     negative rho (up, down):  2.171E-03 0.000E+00

     total cpu time spent up to now is       29.1 secs

     total energy              =     -44.02998878 Ry
     estimated scf accuracy    <       0.00002560 Ry

     iteration #  3     ecut=    40.00 Ry     beta= 0.70
     Davidson diagonalization with overlap
     ethr =  3.20E-07,  avg # of iterations =  2.0

     negative rho (up, down):  2.169E-03 0.000E+00

     total cpu time spent up to now is       29.1 secs

     total energy              =     -44.02998700 Ry
     estimated scf accuracy    <       0.00000557 Ry

     iteration #  4     ecut=    40.00 Ry     beta= 0.70
     Davidson diagonalization with overlap
     ethr =  6.96E-08,  avg # of iterations =  6.0

     negative rho (up, down):  2.167E-03 0.000E+00

     total cpu time spent up to now is       29.2 secs

     total energy              =     -44.02999051 Ry
     estimated scf accuracy    <       0.00001136 Ry

     iteration #  5     ecut=    40.00 Ry     beta= 0.70
     Davidson diagonalization with overlap
     ethr =  6.96E-08,  avg # of iterations =  2.0

     negative rho (up, down):  2.165E-03 0.000E+00

     total cpu time spent up to now is       29.3 secs

     total energy              =     -44.02999052 Ry
     estimated scf accuracy    <       0.00000206 Ry

     iteration #  6     ecut=    40.00 Ry     beta= 0.70
     Davidson diagonalization with overlap
     ethr =  2.57E-08,  avg # of iterations =  6.0

     negative rho (up, down):  2.167E-03 0.000E+00

     total cpu time spent up to now is       29.4 secs

     total energy              =     -44.02999233 Ry
     estimated scf accuracy    <       0.00000079 Ry

     iteration #  7     ecut=    40.00 Ry     beta= 0.70
     Davidson diagonalization with overlap
     ethr =  9.87E-09,  avg # of iterations =  2.0

     negative rho (up, down):  2.166E-03 0.000E+00

     total cpu time spent up to now is       29.5 secs

     total energy              =     -44.02999236 Ry
     estimated scf accuracy    <       0.00000068 Ry

     iteration #  8     ecut=    40.00 Ry     beta= 0.70
     Davidson diagonalization with overlap
     ethr =  8.54E-09,  avg # of iterations =  1.0

     negative rho (up, down):  2.167E-03 0.000E+00

     total cpu time spent up to now is       29.5 secs

     total energy              =     -44.02999204 Ry
     estimated scf accuracy    <       0.00000057 Ry

     iteration #  9     ecut=    40.00 Ry     beta= 0.70
     Davidson diagonalization with overlap
     ethr =  7.15E-09,  avg # of iterations =  4.0

     negative rho (up, down):  2.168E-03 0.000E+00

     total cpu time spent up to now is       29.6 secs

     End of self-consistent calculation

          k = 0.0000 0.0000 0.0000 (  4337 PWs)   bands (ev):

   -24.3312 -12.1140  -8.3690  -6.2640

     highest occupied level (ev):    -6.2640

!    total energy              =     -44.02999218 Ry
     total all-electron energy =      -152.876874 Ry
     estimated scf accuracy    <          4.7E-09 Ry

     The total energy is the sum of the following terms:
     one-electron contribution =     -46.62223531 Ry
     hartree contribution      =      25.24740678 Ry
     xc contribution           =      -8.86434743 Ry
     ewald contribution        =      -4.20482290 Ry
     one-center paw contrib.   =      -9.58599331 Ry

     convergence has been achieved in   9 iterations

     negative rho (up, down):  2.168E-03 0.000E+00

     Forces acting on atoms (cartesian axes, Ry/au):

     atom    1 type  2   force =    -0.00809785   -0.00035360   -0.00068473
     atom    2 type  1   force =     0.00915389   -0.00064567   -0.00119010
     atom    3 type  1   force =    -0.00105605    0.00099927    0.00187482

     Total force =     0.012547     Total SCF correction =     0.000145
     Energy error            =      1.1E-05 Ry
     Gradient error          =      9.2E-03 Ry/Bohr

     number of scf cycles    =  41
     number of bfgs steps    =  39

     energy             old  =     -44.0299815028 Ry
     energy             new  =     -44.0299921769 Ry

     CASE: energy            _new < energy            _old

     new trust radius        =       0.0043031847 bohr
     new conv_thr            =       0.0000000100 Ry


ATOMIC_POSITIONS (angstrom)
O                0.1563894575       -0.1498210163       -0.3142411758
H               -0.7826983710       -0.0296256414       -0.0973794893
H                0.6263089135        0.1994466577        0.4616206651



     Writing config-only to output data dir ./h2o.save/ :
     XML data file
     NEW-OLD atomic charge density approx. for the potential

     Check: negative core charge=   -0.000006

     negative rho (up, down):  2.172E-03 0.000E+00

     total cpu time spent up to now is       29.7 secs

     Self-consistent Calculation

     iteration #  1     ecut=    40.00 Ry     beta= 0.70
     Davidson diagonalization with overlap
     ethr =  1.00E-06,  avg # of iterations =  3.0

     Threshold (ethr) on eigenvalues was too large:
     Diagonalizing with lowered threshold

     Davidson diagonalization with overlap
     ethr =  4.79E-08,  avg # of iterations =  7.0

     negative rho (up, down):  2.172E-03 0.000E+00

     total cpu time spent up to now is       29.9 secs

     total energy              =     -44.03003001 Ry
     estimated scf accuracy    <       0.00000686 Ry

     iteration #  2     ecut=    40.00 Ry     beta= 0.70
     Davidson diagonalization with overlap
     ethr =  8.58E-08,  avg # of iterations =  2.0

     negative rho (up, down):  2.170E-03 0.000E+00

     total cpu time spent up to now is       29.9 secs

     total energy              =     -44.03003119 Ry
     estimated scf accuracy    <       0.00000041 Ry

     iteration #  3     ecut=    40.00 Ry     beta= 0.70
     Davidson diagonalization with overlap
     ethr =  5.14E-09,  avg # of iterations =  4.0

     negative rho (up, down):  2.170E-03 0.000E+00

     total cpu time spent up to now is       30.0 secs

     total energy              =     -44.03003151 Ry
     estimated scf accuracy    <       0.00000011 Ry

     iteration #  4     ecut=    40.00 Ry     beta= 0.70
     Davidson diagonalization with overlap
     ethr =  1.35E-09,  avg # of iterations =  2.0

     negative rho (up, down):  2.169E-03 0.000E+00

     total cpu time spent up to now is       30.1 secs

     total energy              =     -44.03003153 Ry
     estimated scf accuracy    <       0.00000001 Ry

     iteration #  5     ecut=    40.00 Ry     beta= 0.70
     Davidson diagonalization with overlap
     ethr =  1.43E-10,  avg # of iterations =  5.0

     negative rho (up, down):  2.169E-03 0.000E+00

     total cpu time spent up to now is       30.2 secs

     End of self-consistent calculation

          k = 0.0000 0.0000 0.0000 (  4337 PWs)   bands (ev):

   -24.3455 -12.1229  -8.3741  -6.2678

     highest occupied level (ev):    -6.2678

!    total energy              =     -44.03003154 Ry
     total all-electron energy =      -152.876913 Ry
     estimated scf accuracy    <          1.8E-09 Ry

     The total energy is the sum of the following terms:
     one-electron contribution =     -46.64656050 Ry
     hartree contribution      =      25.25837986 Ry
     xc contribution           =      -8.86626302 Ry
     ewald contribution        =      -4.18959866 Ry
     one-center paw contrib.   =      -9.58598923 Ry

     convergence has been achieved in   5 iterations

     negative rho (up, down):  2.169E-03 0.000E+00

     Forces acting on atoms (cartesian axes, Ry/au):

     atom    1 type  2   force =     0.00039067    0.00004640    0.00052663
     atom    2 type  1   force =     0.00186348    0.00012664    0.00018031
     atom    3 type  1   force =    -0.00225416   -0.00017304   -0.00070694

     Total force =     0.003093     Total SCF correction =     0.000145
     Energy error            =      3.9E-05 Ry
     Gradient error          =      2.3E-03 Ry/Bohr

     number of scf cycles    =  42
     number of bfgs steps    =  40

     energy             old  =     -44.0299921769 Ry
     energy             new  =     -44.0300315409 Ry

     CASE: energy            _new < energy            _old

     new trust radius        =       0.0028857130 bohr
     new conv_thr            =       0.0000000100 Ry


ATOMIC_POSITIONS (angstrom)
O                0.1566261062       -0.1498835142       -0.3140902642
H               -0.7814443379       -0.0295145273       -0.0972026863
H                0.6248182317        0.1993980415        0.4612929505



     Writing config-only to output data dir ./h2o.save/ :
     XML data file
     NEW-OLD atomic charge density approx. for the potential

     Check: negative core charge=   -0.000006

     negative rho (up, down):  2.178E-03 0.000E+00

     total cpu time spent up to now is       30.3 secs

     Self-consistent Calculation

     iteration #  1     ecut=    40.00 Ry     beta= 0.70
     Davidson diagonalization with overlap
     ethr =  1.00E-06,  avg # of iterations =  2.0

     Threshold (ethr) on eigenvalues was too large:
     Diagonalizing with lowered threshold

     Davidson diagonalization with overlap
     ethr =  1.17E-08,  avg # of iterations =  7.0

     negative rho (up, down):  2.175E-03 0.000E+00

     total cpu time spent up to now is       30.4 secs

     total energy              =     -44.03003721 Ry
     estimated scf accuracy    <       0.00000211 Ry

     iteration #  2     ecut=    40.00 Ry     beta= 0.70
     Davidson diagonalization with overlap
     ethr =  2.63E-08,  avg # of iterations =  3.0

     negative rho (up, down):  2.171E-03 0.000E+00

     total cpu time spent up to now is       30.5 secs

     total energy              =     -44.03003778 Ry
     estimated scf accuracy    <       0.00000023 Ry

     iteration #  3     ecut=    40.00 Ry     beta= 0.70
     Davidson diagonalization with overlap
     ethr =  2.86E-09,  avg # of iterations =  4.0

     negative rho (up, down):  2.171E-03 0.000E+00

     total cpu time spent up to now is       30.6 secs

     total energy              =     -44.03003789 Ry
     estimated scf accuracy    <       0.00000009 Ry

     iteration #  4     ecut=    40.00 Ry     beta= 0.70
     Davidson diagonalization with overlap
     ethr =  1.08E-09,  avg # of iterations =  3.0

     negative rho (up, down):  2.170E-03 0.000E+00

     total cpu time spent up to now is       30.6 secs

     End of self-consistent calculation

          k = 0.0000 0.0000 0.0000 (  4337 PWs)   bands (ev):

   -24.3600 -12.1285  -8.3812  -6.2712

     highest occupied level (ev):    -6.2712

!    total energy              =     -44.03003791 Ry
     total all-electron energy =      -152.876919 Ry
     estimated scf accuracy    <          2.3E-09 Ry

     The total energy is the sum of the following terms:
     one-electron contribution =     -46.67127254 Ry
     hartree contribution      =      25.26976261 Ry
     xc contribution           =      -8.86824311 Ry
     ewald contribution        =      -4.17429191 Ry
     one-center paw contrib.   =      -9.58599297 Ry

     convergence has been achieved in   4 iterations

     negative rho (up, down):  2.170E-03 0.000E+00

     Forces acting on atoms (cartesian axes, Ry/au):

     atom    1 type  2   force =     0.00075867   -0.00081408   -0.00121345
     atom    2 type  1   force =    -0.00009893    0.00019780    0.00019293
     atom    3 type  1   force =    -0.00065974    0.00061628    0.00102052

     Total force =     0.002157     Total SCF correction =     0.000013
     Energy error            =      6.4E-06 Ry
     Gradient error          =      1.2E-03 Ry/Bohr

     number of scf cycles    =  43
     number of bfgs steps    =  41

     energy             old  =     -44.0300315409 Ry
     energy             new  =     -44.0300379122 Ry

     CASE: energy            _new < energy            _old

     new trust radius        =       0.0028597702 bohr
     new conv_thr            =       0.0000000100 Ry


ATOMIC_POSITIONS (angstrom)
O                0.1571536340       -0.1504775588       -0.3148626507
H               -0.7805994601       -0.0293085112       -0.0969363535
H                0.6234458262        0.1997860700        0.4617990041



     Writing config-only to output data dir ./h2o.save/ :
     XML data file
     NEW-OLD atomic charge density approx. for the potential

     Check: negative core charge=   -0.000006

     negative rho (up, down):  2.183E-03 0.000E+00

     total cpu time spent up to now is       30.8 secs

     Self-consistent Calculation

     iteration #  1     ecut=    40.00 Ry     beta= 0.70
     Davidson diagonalization with overlap
     ethr =  1.00E-06,  avg # of iterations =  2.0

     Threshold (ethr) on eigenvalues was too large:
     Diagonalizing with lowered threshold

     Davidson diagonalization with overlap
     ethr =  2.24E-08,  avg # of iterations =  7.0

     negative rho (up, down):  2.173E-03 0.000E+00

     total cpu time spent up to now is       30.9 secs

     total energy              =     -44.03004180 Ry
     estimated scf accuracy    <       0.00000107 Ry

     iteration #  2     ecut=    40.00 Ry     beta= 0.70
     Davidson diagonalization with overlap
     ethr =  1.34E-08,  avg # of iterations =  5.0

     negative rho (up, down):  2.172E-03 0.000E+00

     total cpu time spent up to now is       31.0 secs

     total energy              =     -44.03004215 Ry
     estimated scf accuracy    <       0.00000046 Ry

     iteration #  3     ecut=    40.00 Ry     beta= 0.70
     Davidson diagonalization with overlap
     ethr =  5.80E-09,  avg # of iterations =  2.0

     negative rho (up, down):  2.171E-03 0.000E+00

     total cpu time spent up to now is       31.0 secs

     total energy              =     -44.03004215 Ry
     estimated scf accuracy    <       0.00000008 Ry

     iteration #  4     ecut=    40.00 Ry     beta= 0.70
     Davidson diagonalization with overlap
     ethr =  9.76E-10,  avg # of iterations =  5.0

     negative rho (up, down):  2.171E-03 0.000E+00

     total cpu time spent up to now is       31.1 secs

     total energy              =     -44.03004225 Ry
     estimated scf accuracy    <       0.00000014 Ry

     iteration #  5     ecut=    40.00 Ry     beta= 0.70
     Davidson diagonalization with overlap
     ethr =  9.76E-10,  avg # of iterations =  1.0

     negative rho (up, down):  2.170E-03 0.000E+00

     total cpu time spent up to now is       31.2 secs

     total energy              =     -44.03004223 Ry
     estimated scf accuracy    <       0.00000005 Ry

     iteration #  6     ecut=    40.00 Ry     beta= 0.70
     Davidson diagonalization with overlap
     ethr =  5.82E-10,  avg # of iterations =  2.0

     negative rho (up, down):  2.170E-03 0.000E+00

     total cpu time spent up to now is       31.3 secs

     End of self-consistent calculation

          k = 0.0000 0.0000 0.0000 (  4337 PWs)   bands (ev):

   -24.3611 -12.1152  -8.3914  -6.2714

     highest occupied level (ev):    -6.2714

!    total energy              =     -44.03004224 Ry
     total all-electron energy =      -152.876924 Ry
     estimated scf accuracy    <          4.0E-09 Ry

     The total energy is the sum of the following terms:
     one-electron contribution =     -46.66656078 Ry
     hartree contribution      =      25.26703848 Ry
     xc contribution           =      -8.86777194 Ry
     ewald contribution        =      -4.17672318 Ry
     one-center paw contrib.   =      -9.58602482 Ry

     convergence has been achieved in   6 iterations

     negative rho (up, down):  2.170E-03 0.000E+00

     Forces acting on atoms (cartesian axes, Ry/au):

     atom    1 type  2   force =     0.00092423   -0.00019798    0.00000460
     atom    2 type  1   force =    -0.00049602   -0.00003602   -0.00027182
     atom    3 type  1   force =    -0.00042820    0.00023399    0.00026721

     Total force =     0.001235     Total SCF correction =     0.000153
     SCF correction compared to forces is large: reduce conv_thr to get better values
     Energy error            =      4.3E-06 Ry
     Gradient error          =      9.2E-04 Ry/Bohr

     bfgs converged in  44 scf cycles and  42 bfgs steps
     (criteria: energy <  1.0E-04 Ry, force <  1.0E-03 Ry/Bohr)

     End of BFGS Geometry Optimization

     Final energy             =     -44.0300422413 Ry

     File ./h2o.bfgs deleted, as requested
Begin final coordinates

ATOMIC_POSITIONS (angstrom)
O                0.1571536340       -0.1504775588       -0.3148626507
H               -0.7805994601       -0.0293085112       -0.0969363535
H                0.6234458262        0.1997860700        0.4617990041
End final coordinates



     Writing all to output data dir ./h2o.save/ :
     XML data file, charge density, pseudopotentials, collected wavefunctions

     init_run     :      0.21s CPU      0.24s WALL (       1 calls)
     electrons    :     24.92s CPU     26.12s WALL (      44 calls)
     update_pot   :      1.81s CPU      1.74s WALL (      43 calls)
     forces       :      1.39s CPU      1.40s WALL (      44 calls)

     Called by init_run:
     wfcinit      :      0.01s CPU      0.02s WALL (       1 calls)
     potinit      :      0.06s CPU      0.06s WALL (       1 calls)
     hinit0       :      0.13s CPU      0.14s WALL (       1 calls)

     Called by electrons:
     c_bands      :      5.63s CPU      7.45s WALL (     300 calls)
     sum_band     :      3.88s CPU      3.78s WALL (     300 calls)
     v_of_rho     :      4.93s CPU      4.79s WALL (     328 calls)
     newd         :      3.03s CPU      2.89s WALL (     328 calls)
     PAW_pot      :      9.04s CPU      8.73s WALL (     371 calls)
     mix_rho      :      0.95s CPU      0.91s WALL (     300 calls)

     Called by c_bands:
     init_us_2    :      0.17s CPU      0.17s WALL (     688 calls)
     cegterg      :      5.41s CPU      7.23s WALL (     300 calls)

     Called by *egterg:
     cdiaghg      :      0.11s CPU      0.10s WALL (    1516 calls)
     h_psi        :      4.37s CPU      6.22s WALL (    1576 calls)
     s_psi        :      0.13s CPU      0.12s WALL (    1576 calls)
     g_psi        :      0.04s CPU      0.04s WALL (    1275 calls)

     Called by h_psi:
     h_psi:calbec :      0.26s CPU      0.25s WALL (    1576 calls)
     vloc_psi     :      3.96s CPU      5.81s WALL (    1576 calls)
     add_vuspsi   :      0.14s CPU      0.13s WALL (    1576 calls)

     General routines
     calbec       :      0.36s CPU      0.36s WALL (    2095 calls)
     fft          :      3.07s CPU      2.97s WALL (    4151 calls)
     ffts         :      0.15s CPU      0.15s WALL (     300 calls)
     fftw         :      3.99s CPU      5.86s WALL (   11038 calls)

     Parallel routines

     PWSCF        :     30.16s CPU     31.30s WALL


   This run was terminated on:  11:51:17   5Jul2025            

=------------------------------------------------------------------------------=
   JOB DONE.
=------------------------------------------------------------------------------=
