
     Program PWSCF v.7.4.1 starts on  3Jul2025 at  8:33:37 

     This program is part of the open-source Quantum ESPRESSO suite
     for quantum simulation of materials; please cite
         "P. Giannozzi et al., J. Phys.:Condens. Matter 21 395502 (2009);
         "P. Giannozzi et al., J. Phys.:Condens. Matter 29 465901 (2017);
         "P. Giannozzi et al., J. Chem. Phys. 152 154105 (2020);
          URL http://www.quantum-espresso.org", 
     in publications or presentations arising from this work. More details at
     http://www.quantum-espresso.org/quote

     Parallel version (MPI), running on     1 processors

     MPI processes distributed on     1 nodes
     393 MiB available memory on the printing compute node when the environment starts

     Waiting for input...
     Reading input from standard input

     Current dimensions of program PWSCF are:
     Max number of different atomic species (ntypx) = 10
     Max number of k-points (npk) =  40000
     Max angular momentum in pseudopotentials (lmaxx) =  4

     Subspace diagonalization in iterative solution of the eigenvalue problem:
     a serial algorithm will be used


     G-vector sticks info
     --------------------
     sticks:   dense  smooth     PW     G-vecs:    dense   smooth      PW
     Sum         661     661    199                11113    11113    1917

     Using Slab Decomposition



     bravais-lattice index     =            2
     lattice parameter (alat)  =      10.4109  a.u.
     unit-cell volume          =     282.1019 (a.u.)^3
     number of atoms/cell      =            2
     number of atomic types    =            1
     number of electrons       =         8.00
     number of Kohn-Sham states=            4
     kinetic-energy cutoff     =      44.0000  Ry
     charge density cutoff     =     176.0000  Ry
     scf convergence threshold =      1.0E-08
     mixing beta               =       0.7000
     number of iterations used =            8  plain     mixing
     Exchange-correlation= PBE
                           (   1   4   3   4   0   0   0)

     celldm(1)=  10.410909  celldm(2)=   0.000000  celldm(3)=   0.000000
     celldm(4)=   0.000000  celldm(5)=   0.000000  celldm(6)=   0.000000

     crystal axes: (cart. coord. in units of alat)
               a(1) = (  -0.500000   0.000000   0.500000 )  
               a(2) = (   0.000000   0.500000   0.500000 )  
               a(3) = (  -0.500000   0.500000   0.000000 )  

     reciprocal axes: (cart. coord. in units 2 pi/alat)
               b(1) = ( -1.000000 -1.000000  1.000000 )  
               b(2) = (  1.000000  1.000000  1.000000 )  
               b(3) = ( -1.000000  1.000000 -1.000000 )  


     PseudoPot. # 1 for Si read from file:
     ./pseudo/Si.pbe-n-rrkjus_psl.1.0.0.UPF
     MD5 check sum: 0b0bb1205258b0d07b9f9672cf965d36
     Pseudo is Ultrasoft + core correction, Zval =  4.0
     Generated using "atomic" code by A. Dal Corso  v.5.1
     Using radial grid of 1141 points,  6 beta functions with: 
                l(1) =   0
                l(2) =   0
                l(3) =   1
                l(4) =   1
                l(5) =   2
                l(6) =   2
     Q(r) pseudized with 0 coefficients 


     atomic species   valence    mass     pseudopotential
     Si                4.00    28.08550     Si( 1.00)

     48 Sym. Ops., with inversion, found (24 have fractional translation)



   Cartesian axes

     site n.     atom                  positions (alat units)
         1        Si     tau(   1) = (   0.0000000   0.0000000   0.0000000  )
         2        Si     tau(   2) = (   0.2500000   0.2500000   0.2500000  )

     number of k points=    47
                       cart. coord. in units 2pi/alat
        k(    1) = (   0.0000000   0.0000000   0.0000000), wk =   0.0020000
        k(    2) = (  -0.1000000   0.1000000  -0.1000000), wk =   0.0160000
        k(    3) = (  -0.2000000   0.2000000  -0.2000000), wk =   0.0160000
        k(    4) = (  -0.3000000   0.3000000  -0.3000000), wk =   0.0160000
        k(    5) = (  -0.4000000   0.4000000  -0.4000000), wk =   0.0160000
        k(    6) = (   0.5000000  -0.5000000   0.5000000), wk =   0.0080000
        k(    7) = (   0.0000000   0.2000000   0.0000000), wk =   0.0120000
        k(    8) = (  -0.1000000   0.3000000  -0.1000000), wk =   0.0480000
        k(    9) = (  -0.2000000   0.4000000  -0.2000000), wk =   0.0480000
        k(   10) = (  -0.3000000   0.5000000  -0.3000000), wk =   0.0480000
        k(   11) = (   0.6000000  -0.4000000   0.6000000), wk =   0.0480000
        k(   12) = (   0.5000000  -0.3000000   0.5000000), wk =   0.0480000
        k(   13) = (   0.4000000  -0.2000000   0.4000000), wk =   0.0480000
        k(   14) = (   0.3000000  -0.1000000   0.3000000), wk =   0.0480000
        k(   15) = (   0.2000000   0.0000000   0.2000000), wk =   0.0240000
        k(   16) = (   0.0000000   0.4000000   0.0000000), wk =   0.0120000
        k(   17) = (  -0.1000000   0.5000000  -0.1000000), wk =   0.0480000
        k(   18) = (  -0.2000000   0.6000000  -0.2000000), wk =   0.0480000
        k(   19) = (   0.7000000  -0.3000000   0.7000000), wk =   0.0480000
        k(   20) = (   0.6000000  -0.2000000   0.6000000), wk =   0.0480000
        k(   21) = (   0.5000000  -0.1000000   0.5000000), wk =   0.0480000
        k(   22) = (   0.4000000   0.0000000   0.4000000), wk =   0.0240000
        k(   23) = (   0.0000000   0.6000000   0.0000000), wk =   0.0120000
        k(   24) = (  -0.1000000   0.7000000  -0.1000000), wk =   0.0480000
        k(   25) = (   0.8000000  -0.2000000   0.8000000), wk =   0.0480000
        k(   26) = (   0.7000000  -0.1000000   0.7000000), wk =   0.0480000
        k(   27) = (   0.6000000  -0.0000000   0.6000000), wk =   0.0240000
        k(   28) = (   0.0000000   0.8000000   0.0000000), wk =   0.0120000
        k(   29) = (   0.9000000  -0.1000000   0.9000000), wk =   0.0480000
        k(   30) = (   0.8000000   0.0000000   0.8000000), wk =   0.0240000
        k(   31) = (   0.0000000  -1.0000000   0.0000000), wk =   0.0060000
        k(   32) = (  -0.2000000   0.4000000   0.0000000), wk =   0.0480000
        k(   33) = (  -0.3000000   0.5000000  -0.1000000), wk =   0.0960000
        k(   34) = (   0.6000000  -0.4000000   0.8000000), wk =   0.0960000
        k(   35) = (   0.5000000  -0.3000000   0.7000000), wk =   0.0480000
        k(   36) = (  -0.2000000   0.6000000   0.0000000), wk =   0.0480000
        k(   37) = (   0.7000000  -0.3000000   0.9000000), wk =   0.0960000
        k(   38) = (   0.6000000  -0.2000000   0.8000000), wk =   0.0960000
        k(   39) = (   0.5000000  -0.1000000   0.7000000), wk =   0.0960000
        k(   40) = (   0.4000000   0.0000000   0.6000000), wk =   0.0480000
        k(   41) = (   0.8000000  -0.2000000   1.0000000), wk =   0.0480000
        k(   42) = (   0.7000000  -0.1000000   0.9000000), wk =   0.0960000
        k(   43) = (   0.6000000   0.0000000   0.8000000), wk =   0.0480000
        k(   44) = (  -0.2000000  -1.0000000   0.0000000), wk =   0.0240000
        k(   45) = (   0.6000000  -0.2000000   1.0000000), wk =   0.0480000
        k(   46) = (   0.5000000  -0.1000000   0.9000000), wk =   0.0480000
        k(   47) = (  -0.4000000  -1.0000000   0.0000000), wk =   0.0240000

     Dense  grid:    11113 G-vectors     FFT dimensions: (  32,  32,  32)

     Estimated max dynamical RAM per process >      44.65 MB

     Check: negative core charge=   -0.000001

     Initial potential from superposition of free atoms

     starting charge       7.9989, renormalised to       8.0000
     Starting wfcs are    8 randomized atomic wfcs

     total cpu time spent up to now is        0.7 secs

     Self-consistent Calculation

     iteration #  1     ecut=    44.00 Ry     beta= 0.70
     Davidson diagonalization with overlap
     ethr =  1.00E-02,  avg # of iterations =  2.0

     Threshold (ethr) on eigenvalues was too large:
     Diagonalizing with lowered threshold

     Davidson diagonalization with overlap
     ethr =  5.77E-04,  avg # of iterations =  1.6

     total cpu time spent up to now is        1.4 secs

     total energy              =     -22.83742617 Ry
     estimated scf accuracy    <       0.05004717 Ry

     iteration #  2     ecut=    44.00 Ry     beta= 0.70
     Davidson diagonalization with overlap
     ethr =  6.26E-04,  avg # of iterations =  1.0

     total cpu time spent up to now is        1.7 secs

     total energy              =     -22.83897541 Ry
     estimated scf accuracy    <       0.00279764 Ry

     iteration #  3     ecut=    44.00 Ry     beta= 0.70
     Davidson diagonalization with overlap
     ethr =  3.50E-05,  avg # of iterations =  2.6

     total cpu time spent up to now is        2.1 secs

     total energy              =     -22.83964917 Ry
     estimated scf accuracy    <       0.00008965 Ry

     iteration #  4     ecut=    44.00 Ry     beta= 0.70
     Davidson diagonalization with overlap
     ethr =  1.12E-06,  avg # of iterations =  4.1

     total cpu time spent up to now is        2.6 secs

     total energy              =     -22.83971494 Ry
     estimated scf accuracy    <       0.00000897 Ry

     iteration #  5     ecut=    44.00 Ry     beta= 0.70
     Davidson diagonalization with overlap
     ethr =  1.12E-07,  avg # of iterations =  3.7

     total cpu time spent up to now is        3.0 secs

     total energy              =     -22.83971921 Ry
     estimated scf accuracy    <       0.00000027 Ry

     iteration #  6     ecut=    44.00 Ry     beta= 0.70
     Davidson diagonalization with overlap
     ethr =  3.33E-09,  avg # of iterations =  4.8

     total cpu time spent up to now is        3.5 secs

     total energy              =     -22.83971941 Ry
     estimated scf accuracy    <       0.00000014 Ry

     iteration #  7     ecut=    44.00 Ry     beta= 0.70
     Davidson diagonalization with overlap
     ethr =  1.70E-09,  avg # of iterations =  2.0

     total cpu time spent up to now is        3.9 secs

     End of self-consistent calculation

          k = 0.0000 0.0000 0.0000 (  1411 PWs)   bands (ev):

    -5.9097   5.7611   5.7611   5.7611

          k =-0.1000 0.1000-0.1000 (  1393 PWs)   bands (ev):

    -5.7836   4.6168   5.5712   5.5712

          k =-0.2000 0.2000-0.2000 (  1387 PWs)   bands (ev):

    -5.4117   2.7988   5.2035   5.2035

          k =-0.3000 0.3000-0.3000 (  1387 PWs)   bands (ev):

    -4.8211   1.0693   4.8776   4.8776

          k =-0.4000 0.4000-0.4000 (  1392 PWs)   bands (ev):

    -4.1093  -0.3503   4.6699   4.6699

          k = 0.5000-0.5000 0.5000 (  1404 PWs)   bands (ev):

    -3.6858  -1.0129   4.5996   4.5996

          k = 0.0000 0.2000 0.0000 (  1399 PWs)   bands (ev):

    -5.7412   4.7815   5.2131   5.2131

          k =-0.1000 0.3000-0.1000 (  1392 PWs)   bands (ev):

    -5.4501   3.3215   4.7944   4.9390

          k =-0.2000 0.4000-0.2000 (  1381 PWs)   bands (ev):

    -4.9277   1.6214   4.4843   4.5160

          k =-0.3000 0.5000-0.3000 (  1390 PWs)   bands (ev):

    -4.2355   0.1074   4.1170   4.3385

          k = 0.6000-0.4000 0.6000 (  1401 PWs)   bands (ev):

    -3.6309  -0.8807   3.8383   4.3668

          k = 0.5000-0.3000 0.5000 (  1397 PWs)   bands (ev):

    -3.7875  -0.6452   3.7189   4.5567

          k = 0.4000-0.2000 0.4000 (  1391 PWs)   bands (ev):

    -4.4793   0.5818   3.7838   4.8781

          k = 0.3000-0.1000 0.3000 (  1379 PWs)   bands (ev):

    -5.1270   2.1704   4.0597   5.2695

          k = 0.2000 0.0000 0.2000 (  1391 PWs)   bands (ev):

    -5.5751   3.7306   4.6569   5.5861

          k = 0.0000 0.4000 0.0000 (  1375 PWs)   bands (ev):

    -5.2399   3.1068   4.3375   4.3375

          k =-0.1000 0.5000-0.1000 (  1382 PWs)   bands (ev):

    -4.7918   1.9091   3.8396   4.0006

          k =-0.2000 0.6000-0.2000 (  1403 PWs)   bands (ev):

    -4.1444   0.5345   3.2278   3.8444

          k = 0.7000-0.3000 0.7000 (  1398 PWs)   bands (ev):

    -3.4500  -0.5928   2.7348   3.8842

          k = 0.6000-0.2000 0.6000 (  1389 PWs)   bands (ev):

    -3.3075  -0.7881   2.4512   4.1113

          k = 0.5000-0.1000 0.5000 (  1389 PWs)   bands (ev):

    -3.9261   0.1478   2.4430   4.4916

          k = 0.4000 0.0000 0.4000 (  1384 PWs)   bands (ev):

    -4.6129   1.3355   2.8914   4.9419

          k = 0.0000 0.6000 0.0000 (  1383 PWs)   bands (ev):

    -4.4179   1.3601   3.6220   3.6220

          k =-0.1000 0.7000-0.1000 (  1392 PWs)   bands (ev):

    -3.8290   0.3892   3.0260   3.4235

          k = 0.8000-0.2000 0.8000 (  1390 PWs)   bands (ev):

    -3.1123  -0.5753   2.2359   3.4284

          k = 0.7000-0.1000 0.7000 (  1397 PWs)   bands (ev):

    -2.7199  -1.0230   1.7086   3.6346

          k = 0.6000-0.0000 0.6000 (  1392 PWs)   bands (ev):

    -3.2321  -0.4576   1.6857   4.0144

          k = 0.0000 0.8000 0.0000 (  1391 PWs)   bands (ev):

    -3.2987  -0.3429   3.1725   3.1725

          k = 0.9000-0.1000 0.9000 (  1382 PWs)   bands (ev):

    -2.5991  -1.1541   2.6212   3.1251

          k = 0.8000 0.0000 0.8000 (  1384 PWs)   bands (ev):

    -2.1539  -1.5531   1.8831   3.2856

          k = 0.0000-1.0000 0.0000 (  1362 PWs)   bands (ev):

    -1.9210  -1.9210   3.0202   3.0202

          k =-0.2000 0.4000 0.0000 (  1379 PWs)   bands (ev):

    -5.0812   2.4034   3.7730   4.8188

          k =-0.3000 0.5000-0.1000 (  1389 PWs)   bands (ev):

    -4.4943   1.0481   3.1938   4.4623

          k = 0.6000-0.4000 0.8000 (  1396 PWs)   bands (ev):

    -3.7820  -0.2539   2.9570   4.1307

          k = 0.5000-0.3000 0.7000 (  1396 PWs)   bands (ev):

    -3.3506  -0.8950   2.8941   4.0007

          k =-0.2000 0.6000 0.0000 (  1387 PWs)   bands (ev):

    -4.2750   1.0245   3.0735   3.7608

          k = 0.7000-0.3000 0.9000 (  1389 PWs)   bands (ev):

    -3.5855  -0.0337   2.4750   3.4511

          k = 0.6000-0.2000 0.8000 (  1393 PWs)   bands (ev):

    -2.9705  -0.8504   2.0792   3.3982

          k = 0.5000-0.1000 0.7000 (  1391 PWs)   bands (ev):

    -3.1615  -0.6049   1.9407   3.6258

          k = 0.4000 0.0000 0.6000 (  1388 PWs)   bands (ev):

    -3.8617   0.3031   2.2362   4.0440

          k = 0.8000-0.2000 1.0000 (  1390 PWs)   bands (ev):

    -3.1873  -0.4276   2.6789   2.9946

          k = 0.7000-0.1000 0.9000 (  1392 PWs)   bands (ev):

    -2.4836  -1.1739   2.0177   2.9072

          k = 0.6000 0.0000 0.8000 (  1390 PWs)   bands (ev):

    -2.4963  -1.1417   1.6235   3.1645

          k =-0.2000-1.0000 0.0000 (  1380 PWs)   bands (ev):

    -1.8736  -1.8736   2.6398   2.6398

          k = 0.6000-0.2000 1.0000 (  1394 PWs)   bands (ev):

    -2.8854  -0.7135   1.9588   2.9055

          k = 0.5000-0.1000 0.9000 (  1400 PWs)   bands (ev):

    -2.4000  -1.2027   1.8102   2.6669

          k =-0.4000-1.0000 0.0000 (  1396 PWs)   bands (ev):

    -1.7907  -1.7907   2.1599   2.1599

     highest occupied level (ev):     5.7611

!    total energy              =     -22.83971944 Ry
     estimated scf accuracy    <          2.1E-09 Ry

     The total energy is the sum of the following terms:
     one-electron contribution =       4.83586171 Ry
     hartree contribution      =       1.13889017 Ry
     xc contribution           =     -12.25707620 Ry
     ewald contribution        =     -16.55739512 Ry

     convergence has been achieved in   7 iterations

     Writing all to output data dir ./tmp/Si.save/ :
     XML data file, charge density, pseudopotentials, collected wavefunctions

     init_run     :      0.60s CPU      0.61s WALL (       1 calls)
     electrons    :      3.26s CPU      3.23s WALL (       1 calls)

     Called by init_run:
     wfcinit      :      0.31s CPU      0.31s WALL (       1 calls)
     potinit      :      0.02s CPU      0.02s WALL (       1 calls)
     hinit0       :      0.23s CPU      0.23s WALL (       1 calls)

     Called by electrons:
     c_bands      :      2.50s CPU      2.47s WALL (       8 calls)
     sum_band     :      0.54s CPU      0.53s WALL (       8 calls)
     v_of_rho     :      0.05s CPU      0.05s WALL (       8 calls)
     newd         :      0.19s CPU      0.20s WALL (       8 calls)
     mix_rho      :      0.01s CPU      0.01s WALL (       8 calls)

     Called by c_bands:
     init_us_2    :      0.18s CPU      0.18s WALL (     799 calls)
     cegterg      :      2.02s CPU      1.99s WALL (     376 calls)

     Called by *egterg:
     cdiaghg      :      0.04s CPU      0.04s WALL (    1352 calls)
     h_psi        :      1.69s CPU      1.67s WALL (    1446 calls)
     s_psi        :      0.27s CPU      0.27s WALL (    1446 calls)
     g_psi        :      0.01s CPU      0.01s WALL (    1023 calls)

     Called by h_psi:
     h_psi:calbec :      0.29s CPU      0.28s WALL (    1446 calls)
     vloc_psi     :      1.12s CPU      1.10s WALL (    1446 calls)
     add_vuspsi   :      0.28s CPU      0.27s WALL (    1446 calls)

     General routines
     calbec       :      0.37s CPU      0.36s WALL (    1822 calls)
     fft          :      0.13s CPU      0.13s WALL (      89 calls)
     ffts         :      0.00s CPU      0.00s WALL (       8 calls)
     fftw         :      1.03s CPU      1.01s WALL (   11470 calls)

     Parallel routines

     PWSCF        :      3.92s CPU      3.98s WALL


   This run was terminated on:   8:33:41   3Jul2025            

=------------------------------------------------------------------------------=
   JOB DONE.
=------------------------------------------------------------------------------=
