
     Program PWSCF v.7.4.1 starts on  3Jul2025 at  8:53: 8 

     This program is part of the open-source Quantum ESPRESSO suite
     for quantum simulation of materials; please cite
         "P. Giannozzi et al., J. Phys.:Condens. Matter 21 395502 (2009);
         "P. Giannozzi et al., J. Phys.:Condens. Matter 29 465901 (2017);
         "P. Giannozzi et al., J. Chem. Phys. 152 154105 (2020);
          URL http://www.quantum-espresso.org", 
     in publications or presentations arising from this work. More details at
     http://www.quantum-espresso.org/quote

     Parallel version (MPI), running on     1 processors

     MPI processes distributed on     1 nodes
     169 MiB available memory on the printing compute node when the environment starts

     Waiting for input...
     Reading input from standard input

     Current dimensions of program PWSCF are:
     Max number of different atomic species (ntypx) = 10
     Max number of k-points (npk) =  40000
     Max angular momentum in pseudopotentials (lmaxx) =  4

     Atomic positions and unit cell read from directory:
     ./tmp/Si.save/


     Subspace diagonalization in iterative solution of the eigenvalue problem:
     a serial algorithm will be used


     G-vector sticks info
     --------------------
     sticks:   dense  smooth     PW     G-vecs:    dense   smooth      PW
     Sum         745     745    223                13539    13539    2133

     Using Slab Decomposition



     bravais-lattice index     =            2
     lattice parameter (alat)  =      10.4109  a.u.
     unit-cell volume          =     282.1019 (a.u.)^3
     number of atoms/cell      =            2
     number of atomic types    =            1
     number of electrons       =         8.00
     number of Kohn-Sham states=            8
     kinetic-energy cutoff     =      50.0000  Ry
     charge density cutoff     =     200.0000  Ry
     Exchange-correlation= PBE
                           (   1   4   3   4   0   0   0)

     celldm(1)=  10.410909  celldm(2)=   0.000000  celldm(3)=   0.000000
     celldm(4)=   0.000000  celldm(5)=   0.000000  celldm(6)=   0.000000

     crystal axes: (cart. coord. in units of alat)
               a(1) = (  -0.500000   0.000000   0.500000 )  
               a(2) = (   0.000000   0.500000   0.500000 )  
               a(3) = (  -0.500000   0.500000   0.000000 )  

     reciprocal axes: (cart. coord. in units 2 pi/alat)
               b(1) = ( -1.000000 -1.000000  1.000000 )  
               b(2) = (  1.000000  1.000000  1.000000 )  
               b(3) = ( -1.000000  1.000000 -1.000000 )  


     PseudoPot. # 1 for Si read from file:
     ../Si.pbe-n-rrkjus_psl.1.0.0.UPF
     MD5 check sum: 0b0bb1205258b0d07b9f9672cf965d36
     Pseudo is Ultrasoft + core correction, Zval =  4.0
     Generated using "atomic" code by A. Dal Corso  v.5.1
     Using radial grid of 1141 points,  6 beta functions with: 
                l(1) =   0
                l(2) =   0
                l(3) =   1
                l(4) =   1
                l(5) =   2
                l(6) =   2
     Q(r) pseudized with 0 coefficients 


     atomic species   valence    mass     pseudopotential
     Si                4.00    28.08550     Si( 1.00)

     48 Sym. Ops., with inversion, found (24 have fractional translation)



   Cartesian axes

     site n.     atom                  positions (alat units)
         1        Si     tau(   1) = (   0.0000000   0.0000000   0.0000000  )
         2        Si     tau(   2) = (   0.2500000   0.2500000   0.2500000  )

     number of k points=    91
                       cart. coord. in units 2pi/alat
        k(    1) = (   0.5000000   0.5000000   0.5000000), wk =   0.0219780
        k(    2) = (   0.4750000   0.4750000   0.4750000), wk =   0.0219780
        k(    3) = (   0.4500000   0.4500000   0.4500000), wk =   0.0219780
        k(    4) = (   0.4250000   0.4250000   0.4250000), wk =   0.0219780
        k(    5) = (   0.4000000   0.4000000   0.4000000), wk =   0.0219780
        k(    6) = (   0.3750000   0.3750000   0.3750000), wk =   0.0219780
        k(    7) = (   0.3500000   0.3500000   0.3500000), wk =   0.0219780
        k(    8) = (   0.3250000   0.3250000   0.3250000), wk =   0.0219780
        k(    9) = (   0.3000000   0.3000000   0.3000000), wk =   0.0219780
        k(   10) = (   0.2750000   0.2750000   0.2750000), wk =   0.0219780
        k(   11) = (   0.2500000   0.2500000   0.2500000), wk =   0.0219780
        k(   12) = (   0.2250000   0.2250000   0.2250000), wk =   0.0219780
        k(   13) = (   0.2000000   0.2000000   0.2000000), wk =   0.0219780
        k(   14) = (   0.1750000   0.1750000   0.1750000), wk =   0.0219780
        k(   15) = (   0.1500000   0.1500000   0.1500000), wk =   0.0219780
        k(   16) = (   0.1250000   0.1250000   0.1250000), wk =   0.0219780
        k(   17) = (   0.1000000   0.1000000   0.1000000), wk =   0.0219780
        k(   18) = (   0.0750000   0.0750000   0.0750000), wk =   0.0219780
        k(   19) = (   0.0500000   0.0500000   0.0500000), wk =   0.0219780
        k(   20) = (   0.0250000   0.0250000   0.0250000), wk =   0.0219780
        k(   21) = (   0.0000000   0.0000000   0.0000000), wk =   0.0219780
        k(   22) = (   0.0333333   0.0000000   0.0000000), wk =   0.0219780
        k(   23) = (   0.0666667   0.0000000   0.0000000), wk =   0.0219780
        k(   24) = (   0.1000000   0.0000000   0.0000000), wk =   0.0219780
        k(   25) = (   0.1333333   0.0000000   0.0000000), wk =   0.0219780
        k(   26) = (   0.1666667   0.0000000   0.0000000), wk =   0.0219780
        k(   27) = (   0.2000000   0.0000000   0.0000000), wk =   0.0219780
        k(   28) = (   0.2333333   0.0000000   0.0000000), wk =   0.0219780
        k(   29) = (   0.2666667   0.0000000   0.0000000), wk =   0.0219780
        k(   30) = (   0.3000000   0.0000000   0.0000000), wk =   0.0219780
        k(   31) = (   0.3333333   0.0000000   0.0000000), wk =   0.0219780
        k(   32) = (   0.3666667   0.0000000   0.0000000), wk =   0.0219780
        k(   33) = (   0.4000000   0.0000000   0.0000000), wk =   0.0219780
        k(   34) = (   0.4333333   0.0000000   0.0000000), wk =   0.0219780
        k(   35) = (   0.4666667   0.0000000   0.0000000), wk =   0.0219780
        k(   36) = (   0.5000000   0.0000000   0.0000000), wk =   0.0219780
        k(   37) = (   0.5333333   0.0000000   0.0000000), wk =   0.0219780
        k(   38) = (   0.5666667   0.0000000   0.0000000), wk =   0.0219780
        k(   39) = (   0.6000000   0.0000000   0.0000000), wk =   0.0219780
        k(   40) = (   0.6333333   0.0000000   0.0000000), wk =   0.0219780
        k(   41) = (   0.6666667   0.0000000   0.0000000), wk =   0.0219780
        k(   42) = (   0.7000000   0.0000000   0.0000000), wk =   0.0219780
        k(   43) = (   0.7333333   0.0000000   0.0000000), wk =   0.0219780
        k(   44) = (   0.7666667   0.0000000   0.0000000), wk =   0.0219780
        k(   45) = (   0.8000000   0.0000000   0.0000000), wk =   0.0219780
        k(   46) = (   0.8333333   0.0000000   0.0000000), wk =   0.0219780
        k(   47) = (   0.8666667   0.0000000   0.0000000), wk =   0.0219780
        k(   48) = (   0.9000000   0.0000000   0.0000000), wk =   0.0219780
        k(   49) = (   0.9333333   0.0000000   0.0000000), wk =   0.0219780
        k(   50) = (   0.9666667   0.0000000   0.0000000), wk =   0.0219780
        k(   51) = (   1.0000000   0.0000000   0.0000000), wk =   0.0219780
        k(   52) = (   1.0000000   0.0250000   0.0250000), wk =   0.0219780
        k(   53) = (   1.0000000   0.0500000   0.0500000), wk =   0.0219780
        k(   54) = (   1.0000000   0.0750000   0.0750000), wk =   0.0219780
        k(   55) = (   1.0000000   0.1000000   0.1000000), wk =   0.0219780
        k(   56) = (   1.0000000   0.1250000   0.1250000), wk =   0.0219780
        k(   57) = (   1.0000000   0.1500000   0.1500000), wk =   0.0219780
        k(   58) = (   1.0000000   0.1750000   0.1750000), wk =   0.0219780
        k(   59) = (   1.0000000   0.2000000   0.2000000), wk =   0.0219780
        k(   60) = (   1.0000000   0.2250000   0.2250000), wk =   0.0219780
        k(   61) = (   1.0000000   0.2500000   0.2500000), wk =   0.0219780
        k(   62) = (   0.9666667   0.2416667   0.2416667), wk =   0.0219780
        k(   63) = (   0.9333333   0.2333333   0.2333333), wk =   0.0219780
        k(   64) = (   0.9000000   0.2250000   0.2250000), wk =   0.0219780
        k(   65) = (   0.8666667   0.2166667   0.2166667), wk =   0.0219780
        k(   66) = (   0.8333333   0.2083333   0.2083333), wk =   0.0219780
        k(   67) = (   0.8000000   0.2000000   0.2000000), wk =   0.0219780
        k(   68) = (   0.7666667   0.1916667   0.1916667), wk =   0.0219780
        k(   69) = (   0.7333333   0.1833333   0.1833333), wk =   0.0219780
        k(   70) = (   0.7000000   0.1750000   0.1750000), wk =   0.0219780
        k(   71) = (   0.6666667   0.1666667   0.1666667), wk =   0.0219780
        k(   72) = (   0.6333333   0.1583333   0.1583333), wk =   0.0219780
        k(   73) = (   0.6000000   0.1500000   0.1500000), wk =   0.0219780
        k(   74) = (   0.5666667   0.1416667   0.1416667), wk =   0.0219780
        k(   75) = (   0.5333333   0.1333333   0.1333333), wk =   0.0219780
        k(   76) = (   0.5000000   0.1250000   0.1250000), wk =   0.0219780
        k(   77) = (   0.4666667   0.1166667   0.1166667), wk =   0.0219780
        k(   78) = (   0.4333333   0.1083333   0.1083333), wk =   0.0219780
        k(   79) = (   0.4000000   0.1000000   0.1000000), wk =   0.0219780
        k(   80) = (   0.3666667   0.0916667   0.0916667), wk =   0.0219780
        k(   81) = (   0.3333333   0.0833333   0.0833333), wk =   0.0219780
        k(   82) = (   0.3000000   0.0750000   0.0750000), wk =   0.0219780
        k(   83) = (   0.2666667   0.0666667   0.0666667), wk =   0.0219780
        k(   84) = (   0.2333333   0.0583333   0.0583333), wk =   0.0219780
        k(   85) = (   0.2000000   0.0500000   0.0500000), wk =   0.0219780
        k(   86) = (   0.1666667   0.0416667   0.0416667), wk =   0.0219780
        k(   87) = (   0.1333333   0.0333333   0.0333333), wk =   0.0219780
        k(   88) = (   0.1000000   0.0250000   0.0250000), wk =   0.0219780
        k(   89) = (   0.0666667   0.0166667   0.0166667), wk =   0.0219780
        k(   90) = (   0.0333333   0.0083333   0.0083333), wk =   0.0219780
        k(   91) = (   0.0000000   0.0000000   0.0000000), wk =   0.0219780

     Dense  grid:    13539 G-vectors     FFT dimensions: (  36,  36,  36)

     Estimated max dynamical RAM per process >      46.07 MB

     Check: negative core charge=   -0.000001

     The potential is recalculated from file :
     ./tmp/Si.save/charge-density

     Starting wfcs are    8 randomized atomic wfcs

     Band Structure Calculation
     Davidson diagonalization with overlap
     c_bands:  1 eigenvalues not converged

     ethr =  1.25E-10,  avg # of iterations = 31.8

     total cpu time spent up to now is       17.7 secs

     End of band structure calculation

          k = 0.5000 0.5000 0.5000 (  1694 PWs)   bands (ev):

    -3.6861  -1.0132   4.5992   4.5992   7.1464   9.1186   9.1186  13.4371

          k = 0.4750 0.4750 0.4750 (  1685 PWs)   bands (ev):

    -3.7190  -0.9653   4.6036   4.6036   7.1516   9.1231   9.1231  13.4441

          k = 0.4500 0.4500 0.4500 (  1685 PWs)   bands (ev):

    -3.8111  -0.8283   4.6168   4.6168   7.1671   9.1365   9.1365  13.4641

          k = 0.4250 0.4250 0.4250 (  1679 PWs)   bands (ev):

    -3.9468  -0.6178   4.6388   4.6388   7.1928   9.1576   9.1576  13.4941

          k = 0.4000 0.4000 0.4000 (  1679 PWs)   bands (ev):

    -4.1096  -0.3506   4.6695   4.6695   7.2286   9.1843   9.1843  13.5270

          k = 0.3750 0.3750 0.3750 (  1673 PWs)   bands (ev):

    -4.2864  -0.0399   4.7088   4.7088   7.2744   9.2138   9.2138  13.5466

          k = 0.3500 0.3500 0.3500 (  1676 PWs)   bands (ev):

    -4.4678   0.3044   4.7567   4.7567   7.3298   9.2421   9.2421  13.5169

          k = 0.3250 0.3250 0.3250 (  1682 PWs)   bands (ev):

    -4.6475   0.6757   4.8129   4.8129   7.3946   9.2640   9.2640  13.3782

          k = 0.3000 0.3000 0.3000 (  1682 PWs)   bands (ev):

    -4.8214   1.0690   4.8772   4.8772   7.4682   9.2736   9.2736  13.1037

          k = 0.2750 0.2750 0.2750 (  1673 PWs)   bands (ev):

    -4.9865   1.4809   4.9491   4.9491   7.5498   9.2644   9.2644  12.7376

          k = 0.2500 0.2500 0.2500 (  1679 PWs)   bands (ev):

    -5.1408   1.9082   5.0280   5.0280   7.6386   9.2307   9.2307  12.3268

          k = 0.2250 0.2250 0.2250 (  1678 PWs)   bands (ev):

    -5.2830   2.3483   5.1131   5.1131   7.7333   9.1694   9.1694  11.8943

          k = 0.2000 0.2000 0.2000 (  1690 PWs)   bands (ev):

    -5.4120   2.7984   5.2031   5.2031   7.8322   9.0810   9.0810  11.4505

          k = 0.1750 0.1750 0.1750 (  1690 PWs)   bands (ev):

    -5.5271   3.2553   5.2965   5.2965   7.9331   8.9700   8.9700  11.0008

          k = 0.1500 0.1500 0.1500 (  1699 PWs)   bands (ev):

    -5.6277   3.7150   5.3911   5.3911   8.0331   8.8439   8.8439  10.5496

          k = 0.1250 0.1250 0.1250 (  1705 PWs)   bands (ev):

    -5.7134   4.1717   5.4838   5.4838   8.1283   8.7121   8.7121  10.1024

          k = 0.1000 0.1000 0.1000 (  1705 PWs)   bands (ev):

    -5.7839   4.6164   5.5708   5.5708   8.2140   8.5847   8.5847   9.6683

          k = 0.0750 0.0750 0.0750 (  1693 PWs)   bands (ev):

    -5.8389   5.0342   5.6473   5.6473   8.2831   8.4716   8.4716   9.2639

          k = 0.0500 0.0500 0.0500 (  1684 PWs)   bands (ev):

    -5.8783   5.3980   5.7079   5.7079   8.3248   8.3823   8.3823   8.9220

          k = 0.0250 0.0250 0.0250 (  1687 PWs)   bands (ev):

    -5.9020   5.6613   5.7470   5.7470   8.3236   8.3248   8.3248   8.7003

          k = 0.0000 0.0000 0.0000 (  1687 PWs)   bands (ev):

    -5.9100   5.7606   5.7606   5.7606   8.3050   8.3050   8.3050   8.6334

          k = 0.0333 0.0000 0.0000 (  1687 PWs)   bands (ev):

    -5.9053   5.7240   5.7407   5.7407   8.2933   8.3307   8.3307   8.6693

          k = 0.0667 0.0000 0.0000 (  1683 PWs)   bands (ev):

    -5.8912   5.6196   5.6833   5.6833   8.2590   8.4054   8.4054   8.7711

          k = 0.1000 0.0000 0.0000 (  1691 PWs)   bands (ev):

    -5.8678   5.4601   5.5945   5.5945   8.2038   8.5231   8.5231   8.9246

          k = 0.1333 0.0000 0.0000 (  1687 PWs)   bands (ev):

    -5.8350   5.2597   5.4819   5.4819   8.1304   8.6760   8.6760   9.1125

          k = 0.1667 0.0000 0.0000 (  1695 PWs)   bands (ev):

    -5.7929   5.0303   5.3527   5.3527   8.0419   8.8570   8.8570   9.3172

          k = 0.2000 0.0000 0.0000 (  1695 PWs)   bands (ev):

    -5.7415   4.7811   5.2127   5.2127   7.9416   9.0600   9.0600   9.5207

          k = 0.2333 0.0000 0.0000 (  1703 PWs)   bands (ev):

    -5.6809   4.5180   5.0666   5.0666   7.8326   9.2804   9.2804   9.7021

          k = 0.2667 0.0000 0.0000 (  1699 PWs)   bands (ev):

    -5.6110   4.2455   4.9177   4.9177   7.7179   9.5145   9.5145   9.8350

          k = 0.3000 0.0000 0.0000 (  1692 PWs)   bands (ev):

    -5.5319   3.9663   4.7687   4.7687   7.6001   9.7597   9.7597   9.8915

          k = 0.3333 0.0000 0.0000 (  1700 PWs)   bands (ev):

    -5.4437   3.6825   4.6213   4.6213   7.4814   9.8564  10.0140  10.0140

          k = 0.3667 0.0000 0.0000 (  1688 PWs)   bands (ev):

    -5.3464   3.3955   4.4771   4.4771   7.3637   9.7388  10.2758  10.2758

          k = 0.4000 0.0000 0.0000 (  1688 PWs)   bands (ev):

    -5.2401   3.1063   4.3371   4.3371   7.2486   9.5631  10.5440  10.5440

          k = 0.4333 0.0000 0.0000 (  1696 PWs)   bands (ev):

    -5.1249   2.8158   4.2021   4.2021   7.1375   9.3535  10.8176  10.8176

          k = 0.4667 0.0000 0.0000 (  1700 PWs)   bands (ev):

    -5.0009   2.5244   4.0728   4.0728   7.0315   9.1268  11.0958  11.0958

          k = 0.5000 0.0000 0.0000 (  1700 PWs)   bands (ev):

    -4.8681   2.2327   3.9497   3.9497   6.9317   8.8941  11.3780  11.3780

          k = 0.5333 0.0000 0.0000 (  1700 PWs)   bands (ev):

    -4.7266   1.9411   3.8333   3.8333   6.8388   8.6623  11.6638  11.6638

          k = 0.5667 0.0000 0.0000 (  1696 PWs)   bands (ev):

    -4.5766   1.6499   3.7239   3.7239   6.7535   8.4357  11.9528  11.9528

          k = 0.6000 0.0000 0.0000 (  1688 PWs)   bands (ev):

    -4.4182   1.3597   3.6217   3.6217   6.6766   8.2172  12.2446  12.2446

          k = 0.6333 0.0000 0.0000 (  1680 PWs)   bands (ev):

    -4.2515   1.0707   3.5270   3.5270   6.6084   8.0087  12.5390  12.5390

          k = 0.6667 0.0000 0.0000 (  1680 PWs)   bands (ev):

    -4.0766   0.7832   3.4401   3.4401   6.5496   7.8115  12.8358  12.8358

          k = 0.7000 0.0000 0.0000 (  1680 PWs)   bands (ev):

    -3.8938   0.4977   3.3610   3.3610   6.5006   7.6265  13.1346  13.1346

          k = 0.7333 0.0000 0.0000 (  1684 PWs)   bands (ev):

    -3.7031   0.2146   3.2899   3.2899   6.4617   7.4543  13.4351  13.4351

          k = 0.7667 0.0000 0.0000 (  1692 PWs)   bands (ev):

    -3.5048  -0.0659   3.2270   3.2270   6.4333   7.2952  13.7369  13.7369

          k = 0.8000 0.0000 0.0000 (  1692 PWs)   bands (ev):

    -3.2990  -0.3432   3.1722   3.1722   6.4157   7.1494  14.0391  14.0391

          k = 0.8333 0.0000 0.0000 (  1684 PWs)   bands (ev):

    -3.0861  -0.6171   3.1258   3.1258   6.4094   7.0170  14.3404  14.3404

          k = 0.8667 0.0000 0.0000 (  1692 PWs)   bands (ev):

    -2.8661  -0.8871   3.0877   3.0877   6.4144   6.8981  14.6381  14.6381

          k = 0.9000 0.0000 0.0000 (  1700 PWs)   bands (ev):

    -2.6394  -1.1529   3.0580   3.0580   6.4313   6.7925  14.9269  14.9269

          k = 0.9333 0.0000 0.0000 (  1692 PWs)   bands (ev):

    -2.4062  -1.4141   3.0368   3.0368   6.4601   6.7002  15.1941  15.1941

          k = 0.9667 0.0000 0.0000 (  1688 PWs)   bands (ev):

    -2.1667  -1.6704   3.0241   3.0241   6.5011   6.6210  15.4079  15.4079

          k = 1.0000 0.0000 0.0000 (  1692 PWs)   bands (ev):

    -1.9214  -1.9214   3.0198   3.0198   6.5547   6.5547  15.4978  15.4978

          k = 1.0000 0.0250 0.0250 (  1686 PWs)   bands (ev):

    -1.9238  -1.9156   2.9851   3.0240   6.5595   6.6074  15.4447  15.4654

          k = 1.0000 0.0500 0.0500 (  1690 PWs)   bands (ev):

    -1.9315  -1.8983   2.8874   3.0367   6.5740   6.7591  15.2977  15.3726

          k = 1.0000 0.0750 0.0750 (  1690 PWs)   bands (ev):

    -1.9451  -1.8695   2.7431   3.0578   6.5981   6.9942  15.0831  15.2303

          k = 1.0000 0.1000 0.1000 (  1690 PWs)   bands (ev):

    -1.9658  -1.8293   2.5707   3.0871   6.6318   7.2951  14.8259  15.0510

          k = 1.0000 0.1250 0.1250 (  1680 PWs)   bands (ev):

    -1.9952  -1.7775   2.3869   3.1247   6.6749   7.6468  14.5439  14.8459

          k = 1.0000 0.1500 0.1500 (  1684 PWs)   bands (ev):

    -2.0350  -1.7142   2.2047   3.1704   6.7272   8.0376  14.2483  14.6238

          k = 1.0000 0.1750 0.1750 (  1688 PWs)   bands (ev):

    -2.0874  -1.6396   2.0342   3.2240   6.7886   8.4593  13.9465  14.3911

          k = 1.0000 0.2000 0.2000 (  1680 PWs)   bands (ev):

    -2.1542  -1.5534   1.8829   3.2853   6.8589   8.9058  13.6429  14.1527

          k = 1.0000 0.2250 0.2250 (  1678 PWs)   bands (ev):

    -2.2371  -1.4559   1.7562   3.3541   6.9378   9.3727  13.3409  13.9011

          k = 1.0000 0.2500 0.2500 (  1682 PWs)   bands (ev):

    -2.3368  -1.3471   1.6577   3.4300   7.0248   9.8561  13.0424  13.5789

          k = 0.9667 0.2417 0.2417 (  1676 PWs)   bands (ev):

    -2.3395  -1.3491   1.7000   3.4078   7.0004   9.6990  13.0750  13.4019

          k = 0.9333 0.2333 0.2333 (  1682 PWs)   bands (ev):

    -2.4197  -1.2762   1.7685   3.3941   6.9878   9.5553  13.0074  13.1824

          k = 0.9000 0.2250 0.2250 (  1680 PWs)   bands (ev):

    -2.5574  -1.1450   1.8594   3.3892   6.9868   9.4257  12.8901  12.9630

          k = 0.8667 0.2167 0.2167 (  1684 PWs)   bands (ev):

    -2.7282  -0.9766   1.9695   3.3932   6.9969   9.3112  12.7449  12.7517

          k = 0.8333 0.2083 0.2083 (  1686 PWs)   bands (ev):

    -2.9164  -0.7844   2.0957   3.4061   7.0174   9.2127  12.5286  12.6047

          k = 0.8000 0.2000 0.2000 (  1680 PWs)   bands (ev):

    -3.1127  -0.5757   2.2357   3.4281   7.0475   9.1315  12.3144  12.4546

          k = 0.7667 0.1917 0.1917 (  1683 PWs)   bands (ev):

    -3.3117  -0.3541   2.3872   3.4591   7.0859   9.0689  12.1024  12.3035

          k = 0.7333 0.1833 0.1833 (  1679 PWs)   bands (ev):

    -3.5101  -0.1219   2.5484   3.4992   7.1312   9.0267  11.8928  12.1519

          k = 0.7000 0.1750 0.1750 (  1679 PWs)   bands (ev):

    -3.7057   0.1197   2.7176   3.5483   7.1814   9.0063  11.6859  11.9995

          k = 0.6667 0.1667 0.1667 (  1678 PWs)   bands (ev):

    -3.8966   0.3700   2.8933   3.6064   7.2347   9.0094  11.4821  11.8454

          k = 0.6333 0.1583 0.1583 (  1681 PWs)   bands (ev):

    -4.0819   0.6282   3.0739   3.6735   7.2893   9.0371  11.2820  11.6885

          k = 0.6000 0.1500 0.1500 (  1680 PWs)   bands (ev):

    -4.2604   0.8940   3.2583   3.7493   7.3437   9.0893  11.0865  11.5271

          k = 0.5667 0.1417 0.1417 (  1683 PWs)   bands (ev):

    -4.4317   1.1670   3.4450   3.8338   7.3971   9.1647  10.8974  11.3596

          k = 0.5333 0.1333 0.1333 (  1685 PWs)   bands (ev):

    -4.5950   1.4469   3.6330   3.9268   7.4493   9.2592  10.7176  11.1847

          k = 0.5000 0.1250 0.1250 (  1675 PWs)   bands (ev):

    -4.7499   1.7334   3.8211   4.0280   7.5008   9.3646  10.5529  11.0009

          k = 0.4667 0.1167 0.1167 (  1678 PWs)   bands (ev):

    -4.8961   2.0261   4.0082   4.1371   7.5525   9.4651  10.4149  10.8076

          k = 0.4333 0.1083 0.1083 (  1682 PWs)   bands (ev):

    -5.0331   2.3245   4.1932   4.2537   7.6055   9.5319  10.3262  10.6047

          k = 0.4000 0.1000 0.1000 (  1685 PWs)   bands (ev):

    -5.1609   2.6283   4.3750   4.3774   7.6609   9.5304  10.3108  10.3929

          k = 0.3667 0.0917 0.0917 (  1681 PWs)   bands (ev):

    -5.2790   2.9366   4.5075   4.5525   7.7194   9.4574  10.1738  10.3552

          k = 0.3333 0.0833 0.0833 (  1687 PWs)   bands (ev):

    -5.3875   3.2487   4.6432   4.7246   7.7813   9.3414   9.9495  10.4024

          k = 0.3000 0.0750 0.0750 (  1690 PWs)   bands (ev):

    -5.4860   3.5635   4.7833   4.8898   7.8465   9.2076   9.7227  10.3895

          k = 0.2667 0.0667 0.0667 (  1700 PWs)   bands (ev):

    -5.5744   3.8794   4.9266   5.0469   7.9144   9.0690   9.4965  10.2776

          k = 0.2333 0.0583 0.0583 (  1706 PWs)   bands (ev):

    -5.6527   4.1943   5.0710   5.1941   7.9838   8.9326   9.2747  10.0739

          k = 0.2000 0.0500 0.0500 (  1703 PWs)   bands (ev):

    -5.7207   4.5049   5.2140   5.3297   8.0529   8.8027   9.0614   9.8140

          k = 0.1667 0.0417 0.0417 (  1699 PWs)   bands (ev):

    -5.7784   4.8067   5.3521   5.4514   8.1192   8.6823   8.8616   9.5315

          k = 0.1333 0.0333 0.0333 (  1691 PWs)   bands (ev):

    -5.8257   5.0924   5.4805   5.5567   8.1799   8.5734   8.6810   9.2526

          k = 0.1000 0.0250 0.0250 (  1684 PWs)   bands (ev):

    -5.8625   5.3505   5.5932   5.6430   8.2317   8.4772   8.5269   9.0004

          k = 0.0667 0.0167 0.0167 (  1684 PWs)   bands (ev):

    -5.8889   5.5638   5.6825   5.7073   8.2715   8.3943   8.4075   8.8000

          k = 0.0333 0.0083 0.0083 (  1687 PWs)   bands (ev):

    -5.9047   5.7086   5.7404   5.7471   8.2965   8.3306   8.3313   8.6747

          k = 0.0000 0.0000 0.0000 (  1687 PWs)   bands (ev):

    -5.9100   5.7606   5.7606   5.7606   8.3050   8.3050   8.3050   8.6334

     Writing all to output data dir ./tmp/Si.save/ :
     XML data file, pseudopotentials, collected wavefunctions

     init_run     :      0.38s CPU      0.39s WALL (       1 calls)
     electrons    :     16.33s CPU     17.19s WALL (       1 calls)

     Called by init_run:
     wfcinit      :      0.00s CPU      0.00s WALL (       1 calls)
     potinit      :      0.01s CPU      0.02s WALL (       1 calls)
     hinit0       :      0.30s CPU      0.31s WALL (       1 calls)

     Called by electrons:
     c_bands      :     16.33s CPU     17.19s WALL (       1 calls)
     v_of_rho     :      0.01s CPU      0.01s WALL (       1 calls)
     newd         :      0.04s CPU      0.05s WALL (       1 calls)

     Called by c_bands:
     init_us_2    :      0.03s CPU      0.03s WALL (      91 calls)
     cegterg      :     15.43s CPU     16.24s WALL (     198 calls)

     Called by *egterg:
     cdiaghg      :      0.25s CPU      0.26s WALL (    2983 calls)
     h_psi        :     10.78s CPU     11.65s WALL (    3181 calls)
     s_psi        :      1.38s CPU      1.38s WALL (    3181 calls)
     g_psi        :      0.09s CPU      0.09s WALL (    2892 calls)

     Called by h_psi:
     h_psi:calbec :      1.53s CPU      1.52s WALL (    3181 calls)
     vloc_psi     :      7.78s CPU      8.66s WALL (    3181 calls)
     add_vuspsi   :      1.42s CPU      1.42s WALL (    3181 calls)

     General routines
     calbec       :      1.52s CPU      1.52s WALL (    3181 calls)
     fft          :      0.17s CPU      0.17s WALL (      12 calls)
     fftw         :      6.48s CPU      7.37s WALL (   35876 calls)
     davcio       :      0.03s CPU      0.04s WALL (     182 calls)

     Parallel routines

     PWSCF        :     16.82s CPU     17.79s WALL


   This run was terminated on:   8:53:26   3Jul2025            

=------------------------------------------------------------------------------=
   JOB DONE.
=------------------------------------------------------------------------------=
