
     Program BANDS v.7.4.1 starts on  3Jul2025 at  8:53:36 

     This program is part of the open-source Quantum ESPRESSO suite
     for quantum simulation of materials; please cite
         "P. Giannozzi et al., J. Phys.:Condens. Matter 21 395502 (2009);
         "P. Giannozzi et al., J. Phys.:Condens. Matter 29 465901 (2017);
         "P. Giannozzi et al., J. Chem. Phys. 152 154105 (2020);
          URL http://www.quantum-espresso.org", 
     in publications or presentations arising from this work. More details at
     http://www.quantum-espresso.org/quote

     Parallel version (MPI), running on     1 processors

     MPI processes distributed on     1 nodes
     182 MiB available memory on the printing compute node when the environment starts


     Reading xml data from directory:

     ./tmp/Si.save/

     IMPORTANT: XC functional enforced from input :
     Exchange-correlation= PBE
                           (   1   4   3   4   0   0   0)
     Any further DFT definition will be discarded
     Please, verify this is what you really want


     G-vector sticks info
     --------------------
     sticks:   dense  smooth     PW     G-vecs:    dense   smooth      PW
     Sum         745     745    223                13539    13539    2133

     Using Slab Decomposition


     Check: negative core charge=   -0.000001
     Reading collected, re-writing distributed wavefunctions
     high-symmetry point:  0.5000 0.5000 0.5000   x coordinate   0.0000
     high-symmetry point:  0.0000 0.0000 0.0000   x coordinate   0.8660
     high-symmetry point:  1.0000 0.0000 0.0000   x coordinate   1.8660
     high-symmetry point:  1.0000 0.2500 0.2500   x coordinate   2.2196
     high-symmetry point:  0.0000 0.0000 0.0000   x coordinate   3.2802

     Plottable bands (eV) written to file Si.bands.dat.gnu
     Bands written to file Si.bands.dat

 **************************************************************************

                    xk=(   0.50000,   0.50000,   0.50000  )

     zone border point and non-symmorphic group 
     symmetry decomposition not available

 **************************************************************************

 **************************************************************************

                    xk=(   0.47500,   0.47500,   0.47500  )

     point group C_3v (3m)  
     there are  3 classes
     the character table:

       E     2C3   3s_v 
A_1    1.00  1.00  1.00
A_2    1.00  1.00 -1.00
E      2.00 -1.00  0.00

     the symmetry operations in each class and the name of the first element:

     E        1
                                                                 
     2C3      2    3
                                                                 
     3s_v     4    5    6
                                                                 

     Band symmetry, C_3v (3m)   point group:

     e(  1 -  1) =     -3.71903  eV     1   --> A_1  L_1       
     e(  2 -  2) =     -0.96530  eV     1   --> A_1  L_1       
     e(  3 -  4) =      4.60360  eV     2   --> E    L_3       
     e(  5 -  5) =      7.15158  eV     1   --> A_1  L_1       
     e(  6 -  7) =      9.12315  eV     2   --> E    L_3       
     e(  8 -  8) =     13.44409  eV     1   --> A_1  L_1       

 **************************************************************************

 **************************************************************************

                    xk=(   0.45000,   0.45000,   0.45000  )

     Band symmetry, C_3v (3m)   point group:

     e(  1 -  1) =     -3.81108  eV     1   --> A_1  L_1       
     e(  2 -  2) =     -0.82832  eV     1   --> A_1  L_1       
     e(  3 -  4) =      4.61680  eV     2   --> E    L_3       
     e(  5 -  5) =      7.16705  eV     1   --> A_1  L_1       
     e(  6 -  7) =      9.13652  eV     2   --> E    L_3       
     e(  8 -  8) =     13.46413  eV     1   --> A_1  L_1       

 **************************************************************************

 **************************************************************************

                    xk=(   0.42500,   0.42500,   0.42500  )

     Band symmetry, C_3v (3m)   point group:

     e(  1 -  1) =     -3.94678  eV     1   --> A_1  L_1       
     e(  2 -  2) =     -0.61784  eV     1   --> A_1  L_1       
     e(  3 -  4) =      4.63877  eV     2   --> E    L_3       
     e(  5 -  5) =      7.19277  eV     1   --> A_1  L_1       
     e(  6 -  7) =      9.15756  eV     2   --> E    L_3       
     e(  8 -  8) =     13.49414  eV     1   --> A_1  L_1       

 **************************************************************************

 **************************************************************************

                    xk=(   0.40000,   0.40000,   0.40000  )

     Band symmetry, C_3v (3m)   point group:

     e(  1 -  1) =     -4.10962  eV     1   --> A_1  L_1       
     e(  2 -  2) =     -0.35055  eV     1   --> A_1  L_1       
     e(  3 -  4) =      4.66948  eV     2   --> E    L_3       
     e(  5 -  5) =      7.22861  eV     1   --> A_1  L_1       
     e(  6 -  7) =      9.18429  eV     2   --> E    L_3       
     e(  8 -  8) =     13.52699  eV     1   --> A_1  L_1       

 **************************************************************************

 **************************************************************************

                    xk=(   0.37500,   0.37500,   0.37500  )

     Band symmetry, C_3v (3m)   point group:

     e(  1 -  1) =     -4.28640  eV     1   --> A_1  L_1       
     e(  2 -  2) =     -0.03991  eV     1   --> A_1  L_1       
     e(  3 -  4) =      4.70883  eV     2   --> E    L_3       
     e(  5 -  5) =      7.27439  eV     1   --> A_1  L_1       
     e(  6 -  7) =      9.21379  eV     2   --> E    L_3       
     e(  8 -  8) =     13.54659  eV     1   --> A_1  L_1       

 **************************************************************************

 **************************************************************************

                    xk=(   0.35000,   0.35000,   0.35000  )

     Band symmetry, C_3v (3m)   point group:

     e(  1 -  1) =     -4.46780  eV     1   --> A_1  L_1       
     e(  2 -  2) =      0.30441  eV     1   --> A_1  L_1       
     e(  3 -  4) =      4.75672  eV     2   --> E    L_3       
     e(  5 -  5) =      7.32984  eV     1   --> A_1  L_1       
     e(  6 -  7) =      9.24207  eV     2   --> E    L_3       
     e(  8 -  8) =     13.51693  eV     1   --> A_1  L_1       

 **************************************************************************

 **************************************************************************

                    xk=(   0.32500,   0.32500,   0.32500  )

     Band symmetry, C_3v (3m)   point group:

     e(  1 -  1) =     -4.64754  eV     1   --> A_1  L_1       
     e(  2 -  2) =      0.67566  eV     1   --> A_1  L_1       
     e(  3 -  4) =      4.81294  eV     2   --> E    L_3       
     e(  5 -  5) =      7.39461  eV     1   --> A_1  L_1       
     e(  6 -  7) =      9.26402  eV     2   --> E    L_3       
     e(  8 -  8) =     13.37818  eV     1   --> A_1  L_1       

 **************************************************************************

 **************************************************************************

                    xk=(   0.30000,   0.30000,   0.30000  )

     Band symmetry, C_3v (3m)   point group:

     e(  1 -  1) =     -4.82138  eV     1   --> A_1  L_1       
     e(  2 -  2) =      1.06902  eV     1   --> A_1  L_1       
     e(  3 -  4) =      4.87720  eV     2   --> E    L_3       
     e(  5 -  5) =      7.46816  eV     1   --> A_1  L_1       
     e(  6 -  7) =      9.27358  eV     2   --> E    L_3       
     e(  8 -  8) =     13.10366  eV     1   --> A_1  L_1       

 **************************************************************************

 **************************************************************************

                    xk=(   0.27500,   0.27500,   0.27500  )

     Band symmetry, C_3v (3m)   point group:

     e(  1 -  1) =     -4.98646  eV     1   --> A_1  L_1       
     e(  2 -  2) =      1.48085  eV     1   --> A_1  L_1       
     e(  3 -  4) =      4.94910  eV     2   --> E    L_3       
     e(  5 -  5) =      7.54981  eV     1   --> A_1  L_1       
     e(  6 -  7) =      9.26435  eV     2   --> E    L_3       
     e(  8 -  8) =     12.73762  eV     1   --> A_1  L_1       

 **************************************************************************

 **************************************************************************

                    xk=(   0.25000,   0.25000,   0.25000  )

     Band symmetry, C_3v (3m)   point group:

     e(  1 -  1) =     -5.14080  eV     1   --> A_1  L_1       
     e(  2 -  2) =      1.90818  eV     1   --> A_1  L_1       
     e(  3 -  4) =      5.02800  eV     2   --> E    L_3       
     e(  5 -  5) =      7.63861  eV     1   --> A_1  L_1       
     e(  6 -  7) =      9.23071  eV     2   --> E    L_3       
     e(  8 -  8) =     12.32675  eV     1   --> A_1  L_1       

 **************************************************************************

 **************************************************************************

                    xk=(   0.22500,   0.22500,   0.22500  )

     Band symmetry, C_3v (3m)   point group:

     e(  1 -  1) =     -5.28298  eV     1   --> A_1  L_1       
     e(  2 -  2) =      2.34828  eV     1   --> A_1  L_1       
     e(  3 -  4) =      5.11308  eV     2   --> E    L_3       
     e(  5 -  5) =      7.73329  eV     1   --> A_1  L_1       
     e(  6 -  7) =      9.16945  eV     2   --> E    L_3       
     e(  8 -  8) =     11.89426  eV     1   --> A_1  L_1       

 **************************************************************************

 **************************************************************************

                    xk=(   0.20000,   0.20000,   0.20000  )

     Band symmetry, C_3v (3m)   point group:

     e(  1 -  1) =     -5.41199  eV     1   --> A_1  L_1       
     e(  2 -  2) =      2.79839  eV     1   --> A_1  L_1       
     e(  3 -  4) =      5.20313  eV     2   --> E    L_3       
     e(  5 -  5) =      7.83218  eV     1   --> A_1  L_1       
     e(  6 -  7) =      9.08104  eV     2   --> E    L_3       
     e(  8 -  8) =     11.45045  eV     1   --> A_1  L_1       

 **************************************************************************

 **************************************************************************

                    xk=(   0.17500,   0.17500,   0.17500  )

     Band symmetry, C_3v (3m)   point group:

     e(  1 -  1) =     -5.52707  eV     1   --> A_1  L_1       
     e(  2 -  2) =      3.25531  eV     1   --> A_1  L_1       
     e(  3 -  4) =      5.29654  eV     2   --> E    L_3       
     e(  5 -  5) =      7.93308  eV     1   --> A_1  L_1       
     e(  6 -  7) =      8.96997  eV     2   --> E    L_3       
     e(  8 -  8) =     11.00081  eV     1   --> A_1  L_1       

 **************************************************************************

 **************************************************************************

                    xk=(   0.15000,   0.15000,   0.15000  )

     Band symmetry, C_3v (3m)   point group:

     e(  1 -  1) =     -5.62768  eV     1   --> A_1  L_1       
     e(  2 -  2) =      3.71499  eV     1   --> A_1  L_1       
     e(  3 -  4) =      5.39107  eV     2   --> E    L_3       
     e(  5 -  5) =      8.03305  eV     1   --> A_1  L_1       
     e(  6 -  7) =      8.84386  eV     2   --> E    L_3       
     e(  8 -  8) =     10.54963  eV     1   --> A_1  L_1       

 **************************************************************************

 **************************************************************************

                    xk=(   0.12500,   0.12500,   0.12500  )

     Band symmetry, C_3v (3m)   point group:

     e(  1 -  1) =     -5.71338  eV     1   --> A_1  L_1       
     e(  2 -  2) =      4.17166  eV     1   --> A_1  L_1       
     e(  3 -  4) =      5.48377  eV     2   --> E    L_3       
     e(  5 -  5) =      8.12835  eV     1   --> A_1  L_1       
     e(  6 -  7) =      8.71210  eV     2   --> E    L_3       
     e(  8 -  8) =     10.10242  eV     1   --> A_1  L_1       

 **************************************************************************

 **************************************************************************

                    xk=(   0.10000,   0.10000,   0.10000  )

     Band symmetry, C_3v (3m)   point group:

     e(  1 -  1) =     -5.78387  eV     1   --> A_1  L_1       
     e(  2 -  2) =      4.61639  eV     1   --> A_1  L_1       
     e(  3 -  4) =      5.57077  eV     2   --> E    L_3       
     e(  5 -  5) =      8.21399  eV     1   --> A_1  L_1       
     e(  6 -  7) =      8.58470  eV     2   --> E    L_3       
     e(  8 -  8) =      9.66828  eV     1   --> A_1  L_1       

 **************************************************************************

 **************************************************************************

                    xk=(   0.07500,   0.07500,   0.07500  )

     Band symmetry, C_3v (3m)   point group:

     e(  1 -  1) =     -5.83892  eV     1   --> A_1  L_1       
     e(  2 -  2) =      5.03415  eV     1   --> A_1  L_1       
     e(  3 -  4) =      5.64730  eV     2   --> E    L_3       
     e(  5 -  5) =      8.28313  eV     1   --> A_1  L_1       
     e(  6 -  7) =      8.47163  eV     2   --> E    L_3       
     e(  8 -  8) =      9.26391  eV     1   --> A_1  L_1       

 **************************************************************************

 **************************************************************************

                    xk=(   0.05000,   0.05000,   0.05000  )

     Band symmetry, C_3v (3m)   point group:

     e(  1 -  1) =     -5.87835  eV     1   --> A_1  L_1       
     e(  2 -  2) =      5.39804  eV     1   --> A_1  L_1       
     e(  3 -  4) =      5.70787  eV     2   --> E    L_3       
     e(  5 -  5) =      8.32480  eV     1   --> A_1  L_1       
     e(  6 -  7) =      8.38229  eV     2   --> E    L_3       
     e(  8 -  8) =      8.92201  eV     1   --> A_1  L_1       

 **************************************************************************

 **************************************************************************

                    xk=(   0.02500,   0.02500,   0.02500  )

     Band symmetry, C_3v (3m)   point group:

     e(  1 -  1) =     -5.90205  eV     1   --> A_1  L_1       
     e(  2 -  2) =      5.66127  eV     1   --> A_1  L_1       
     e(  3 -  4) =      5.74702  eV     2   --> E    L_3       
     e(  5 -  5) =      8.32361  eV     1   --> A_1  L_1       
     e(  6 -  7) =      8.32482  eV     2   --> E    L_3       
     e(  8 -  8) =      8.70028  eV     1   --> A_1  L_1       

 **************************************************************************

 **************************************************************************

                    xk=(   0.00000,   0.00000,   0.00000  )

     point group O_h (m-3m) 
     there are 10 classes
     the character table:

       E     8C3   3C2   6C4   6C2'  i     8S6   3s_h  6S4   6s_d 
A_1g   1.00  1.00  1.00  1.00  1.00  1.00  1.00  1.00  1.00  1.00
A_2g   1.00  1.00  1.00 -1.00 -1.00  1.00  1.00  1.00 -1.00 -1.00
E_g    2.00 -1.00  2.00  0.00  0.00  2.00 -1.00  2.00  0.00  0.00
T_1g   3.00  0.00 -1.00  1.00 -1.00  3.00  0.00 -1.00  1.00 -1.00
T_2g   3.00  0.00 -1.00 -1.00  1.00  3.00  0.00 -1.00 -1.00  1.00
A_1u   1.00  1.00  1.00  1.00  1.00 -1.00 -1.00 -1.00 -1.00 -1.00
A_2u   1.00  1.00  1.00 -1.00 -1.00 -1.00 -1.00 -1.00  1.00  1.00
E_u    2.00 -1.00  2.00  0.00  0.00 -2.00  1.00 -2.00  0.00  0.00
T_1u   3.00  0.00 -1.00  1.00 -1.00 -3.00  0.00  1.00 -1.00  1.00
T_2u   3.00  0.00 -1.00 -1.00  1.00 -3.00  0.00  1.00  1.00 -1.00

     the symmetry operations in each class and the name of the first element:

     E        1
                                                                 
     8C3     17   19   20   18   24   21   22   23
                                                                 
     3C2      2    4    3
                                                                 
     6C4      7    8   15   16   12   11
                                                                 
     6C2'     5    6   14   13   10    9
                                                                 
     i       25
                                                                 
     8S6     41   43   44   42   48   45   46   47
                                                                 
     3s_h    26   28   27
                                                                 
     6S4     31   32   39   40   36   35
                                                                 
     6s_d    29   30   38   37   34   33
                                                                 

     Band symmetry, O_h (m-3m)  point group:

     e(  1 -  1) =     -5.90996  eV     1   --> A_1g G_1   G_1+
     e(  2 -  4) =      5.76060  eV     3   --> T_2g G_25' G_5+
     e(  5 -  7) =      8.30497  eV     3   --> T_1u G_15  G_4-
     e(  8 -  8) =      8.63341  eV     1   --> A_2u G_2'  G_2-

 **************************************************************************

 **************************************************************************

                    xk=(   0.03333,   0.00000,   0.00000  )

     point group C_4v (4mm) 
     there are  5 classes
     the character table:

       E     2C4   C2    2s_v  2s_d 
A_1    1.00  1.00  1.00  1.00  1.00
A_2    1.00  1.00  1.00 -1.00 -1.00
B_1    1.00 -1.00  1.00  1.00 -1.00
B_2    1.00 -1.00  1.00 -1.00  1.00
E      2.00  0.00 -2.00  0.00  0.00

     the symmetry operations in each class and the name of the first element:

     E        1
                                                                 
     2C4      3    4
                                                                 
     C2       2
                                                                 
     2s_v     5    6
                                                                 
     2s_d     7    8
                                                                 

     Band symmetry, C_4v (4mm)  point group:

     e(  1 -  1) =     -5.90527  eV     1   --> A_1  G_1 D_1   
     e(  2 -  2) =      5.72405  eV     1   --> B_2  G_4 D_2'  
     e(  3 -  4) =      5.74068  eV     2   --> E    G_5 D_5   
     e(  5 -  5) =      8.29332  eV     1   --> A_1  G_1 D_1   
     e(  6 -  7) =      8.33068  eV     2   --> E    G_5 D_5   
     e(  8 -  8) =      8.66929  eV     1   --> B_2  G_4 D_2'  

 **************************************************************************

 **************************************************************************

                    xk=(   0.06667,   0.00000,   0.00000  )

     Band symmetry, C_4v (4mm)  point group:

     e(  1 -  1) =     -5.89121  eV     1   --> A_1  G_1 D_1   
     e(  2 -  2) =      5.61965  eV     1   --> B_2  G_4 D_2'  
     e(  3 -  4) =      5.68329  eV     2   --> E    G_5 D_5   
     e(  5 -  5) =      8.25903  eV     1   --> A_1  G_1 D_1   
     e(  6 -  7) =      8.40543  eV     2   --> E    G_5 D_5   
     e(  8 -  8) =      8.77113  eV     1   --> B_2  G_4 D_2'  

 **************************************************************************

 **************************************************************************

                    xk=(   0.10000,   0.00000,   0.00000  )

     Band symmetry, C_4v (4mm)  point group:

     e(  1 -  1) =     -5.86779  eV     1   --> A_1  G_1 D_1   
     e(  2 -  2) =      5.46010  eV     1   --> B_2  G_4 D_2'  
     e(  3 -  4) =      5.59452  eV     2   --> E    G_5 D_5   
     e(  5 -  5) =      8.20384  eV     1   --> A_1  G_1 D_1   
     e(  6 -  7) =      8.52308  eV     2   --> E    G_5 D_5   
     e(  8 -  8) =      8.92465  eV     1   --> B_2  G_4 D_2'  

 **************************************************************************

 **************************************************************************

                    xk=(   0.13333,   0.00000,   0.00000  )

     Band symmetry, C_4v (4mm)  point group:

     e(  1 -  1) =     -5.83502  eV     1   --> A_1  G_1 D_1   
     e(  2 -  2) =      5.25966  eV     1   --> B_2  G_4 D_2'  
     e(  3 -  4) =      5.48192  eV     2   --> E    G_5 D_5   
     e(  5 -  5) =      8.13042  eV     1   --> A_1  G_1 D_1   
     e(  6 -  7) =      8.67603  eV     2   --> E    G_5 D_5   
     e(  8 -  8) =      9.11247  eV     1   --> B_2  G_4 D_2'  

 **************************************************************************

 **************************************************************************

                    xk=(   0.16667,   0.00000,   0.00000  )

     Band symmetry, C_4v (4mm)  point group:

     e(  1 -  1) =     -5.79293  eV     1   --> A_1  G_1 D_1   
     e(  2 -  2) =      5.03035  eV     1   --> B_2  G_4 D_2'  
     e(  3 -  4) =      5.35267  eV     2   --> E    G_5 D_5   
     e(  5 -  5) =      8.04190  eV     1   --> A_1  G_1 D_1   
     e(  6 -  7) =      8.85702  eV     2   --> E    G_5 D_5   
     e(  8 -  8) =      9.31716  eV     1   --> B_2  G_4 D_2'  

 **************************************************************************

 **************************************************************************

                    xk=(   0.20000,   0.00000,   0.00000  )

     Band symmetry, C_4v (4mm)  point group:

     e(  1 -  1) =     -5.74153  eV     1   --> A_1  G_1 D_1   
     e(  2 -  2) =      4.78108  eV     1   --> B_2  G_4 D_2'  
     e(  3 -  4) =      5.21270  eV     2   --> E    G_5 D_5   
     e(  5 -  5) =      7.94156  eV     1   --> A_1  G_1 D_1   
     e(  6 -  7) =      9.06003  eV     2   --> E    G_5 D_5   
     e(  8 -  8) =      9.52072  eV     1   --> B_2  G_4 D_2'  

 **************************************************************************

 **************************************************************************

                    xk=(   0.23333,   0.00000,   0.00000  )

     Band symmetry, C_4v (4mm)  point group:

     e(  1 -  1) =     -5.68087  eV     1   --> A_1  G_1 D_1   
     e(  2 -  2) =      4.51805  eV     1   --> B_2  G_4 D_2'  
     e(  3 -  4) =      5.06658  eV     2   --> E    G_5 D_5   
     e(  5 -  5) =      7.83259  eV     1   --> A_1  G_1 D_1   
     e(  6 -  7) =      9.28036  eV     2   --> E    G_5 D_5   
     e(  8 -  8) =      9.70208  eV     1   --> B_2  G_4 D_2'  

 **************************************************************************

 **************************************************************************

                    xk=(   0.26667,   0.00000,   0.00000  )

     Band symmetry, C_4v (4mm)  point group:

     e(  1 -  1) =     -5.61098  eV     1   --> A_1  G_1 D_1   
     e(  2 -  2) =      4.24549  eV     1   --> B_2  G_4 D_2'  
     e(  3 -  4) =      4.91773  eV     2   --> E    G_5 D_5   
     e(  5 -  5) =      7.71790  eV     1   --> A_1  G_1 D_1   
     e(  6 -  7) =      9.51447  eV     2   --> E    G_5 D_5   
     e(  8 -  8) =      9.83497  eV     1   --> B_2  G_4 D_2'  

 **************************************************************************

 **************************************************************************

                    xk=(   0.30000,   0.00000,   0.00000  )

     Band symmetry, C_4v (4mm)  point group:

     e(  1 -  1) =     -5.53191  eV     1   --> A_1  G_1 D_1   
     e(  2 -  2) =      3.96631  eV     1   --> B_2  G_4 D_2'  
     e(  3 -  4) =      4.76869  eV     2   --> E    G_5 D_5   
     e(  5 -  5) =      7.60008  eV     1   --> A_1  G_1 D_1   
     e(  6 -  7) =      9.75968  eV     2   --> E    G_5 D_5   
     e(  8 -  8) =      9.89152  eV     1   --> B_2  G_4 D_2'  

 **************************************************************************

 **************************************************************************

                    xk=(   0.33333,   0.00000,   0.00000  )

     Band symmetry, C_4v (4mm)  point group:

     e(  1 -  1) =     -5.44370  eV     1   --> A_1  G_1 D_1   
     e(  2 -  2) =      3.68251  eV     1   --> B_2  G_4 D_2'  
     e(  3 -  4) =      4.62134  eV     2   --> E    G_5 D_5   
     e(  5 -  5) =      7.48136  eV     1   --> A_1  G_1 D_1   
     e(  6 -  6) =      9.85643  eV     1   --> B_2  G_4 D_2'  
     e(  7 -  8) =     10.01399  eV     2   --> E    G_5 D_5   

 **************************************************************************

 **************************************************************************

                    xk=(   0.36667,   0.00000,   0.00000  )

     Band symmetry, C_4v (4mm)  point group:

     e(  1 -  1) =     -5.34642  eV     1   --> A_1  G_1 D_1   
     e(  2 -  2) =      3.39551  eV     1   --> B_2  G_4 D_2'  
     e(  3 -  4) =      4.47711  eV     2   --> E    G_5 D_5   
     e(  5 -  5) =      7.36366  eV     1   --> A_1  G_1 D_1   
     e(  6 -  6) =      9.73879  eV     1   --> B_2  G_4 D_2'  
     e(  7 -  8) =     10.27584  eV     2   --> E    G_5 D_5   

 **************************************************************************

 **************************************************************************

                    xk=(   0.40000,   0.00000,   0.00000  )

     Band symmetry, C_4v (4mm)  point group:

     e(  1 -  1) =     -5.24014  eV     1   --> A_1  G_1 D_1   
     e(  2 -  2) =      3.10634  eV     1   --> B_2  G_4 D_2'  
     e(  3 -  4) =      4.33709  eV     2   --> E    G_5 D_5   
     e(  5 -  5) =      7.24858  eV     1   --> A_1  G_1 D_1   
     e(  6 -  6) =      9.56314  eV     1   --> B_2  G_4 D_2'  
     e(  7 -  8) =     10.54401  eV     2   --> E    G_5 D_5   

 **************************************************************************

 **************************************************************************

                    xk=(   0.43333,   0.00000,   0.00000  )

     Band symmetry, C_4v (4mm)  point group:

     e(  1 -  1) =     -5.12494  eV     1   --> A_1  G_1 D_1   
     e(  2 -  2) =      2.81576  eV     1   --> B_2  G_4 D_2'  
     e(  3 -  4) =      4.20209  eV     2   --> E    G_5 D_5   
     e(  5 -  5) =      7.13748  eV     1   --> A_1  G_1 D_1   
     e(  6 -  6) =      9.35346  eV     1   --> B_2  G_4 D_2'  
     e(  7 -  8) =     10.81757  eV     2   --> E    G_5 D_5   

 **************************************************************************

 **************************************************************************

                    xk=(   0.46667,   0.00000,   0.00000  )

     Band symmetry, C_4v (4mm)  point group:

     e(  1 -  1) =     -5.00088  eV     1   --> A_1  G_1 D_1   
     e(  2 -  2) =      2.52437  eV     1   --> B_2  G_4 D_2'  
     e(  3 -  4) =      4.07280  eV     2   --> E    G_5 D_5   
     e(  5 -  5) =      7.03151  eV     1   --> A_1  G_1 D_1   
     e(  6 -  6) =      9.12681  eV     1   --> B_2  G_4 D_2'  
     e(  7 -  8) =     11.09577  eV     2   --> E    G_5 D_5   

 **************************************************************************

 **************************************************************************

                    xk=(   0.50000,   0.00000,   0.00000  )

     Band symmetry, C_4v (4mm)  point group:

     e(  1 -  1) =     -4.86807  eV     1   --> A_1  G_1 D_1   
     e(  2 -  2) =      2.23266  eV     1   --> B_2  G_4 D_2'  
     e(  3 -  4) =      3.94973  eV     2   --> E    G_5 D_5   
     e(  5 -  5) =      6.93166  eV     1   --> A_1  G_1 D_1   
     e(  6 -  6) =      8.89415  eV     1   --> B_2  G_4 D_2'  
     e(  7 -  8) =     11.37801  eV     2   --> E    G_5 D_5   

 **************************************************************************

 **************************************************************************

                    xk=(   0.53333,   0.00000,   0.00000  )

     Band symmetry, C_4v (4mm)  point group:

     e(  1 -  1) =     -4.72661  eV     1   --> A_1  G_1 D_1   
     e(  2 -  2) =      1.94106  eV     1   --> B_2  G_4 D_2'  
     e(  3 -  4) =      3.83330  eV     2   --> E    G_5 D_5   
     e(  5 -  5) =      6.83875  eV     1   --> A_1  G_1 D_1   
     e(  6 -  6) =      8.66233  eV     1   --> B_2  G_4 D_2'  
     e(  7 -  8) =     11.66381  eV     2   --> E    G_5 D_5   

 **************************************************************************

 **************************************************************************

                    xk=(   0.56667,   0.00000,   0.00000  )

     Band symmetry, C_4v (4mm)  point group:

     e(  1 -  1) =     -4.57660  eV     1   --> A_1  G_1 D_1   
     e(  2 -  2) =      1.64995  eV     1   --> B_2  G_4 D_2'  
     e(  3 -  4) =      3.72386  eV     2   --> E    G_5 D_5   
     e(  5 -  5) =      6.75351  eV     1   --> A_1  G_1 D_1   
     e(  6 -  6) =      8.43572  eV     1   --> B_2  G_4 D_2'  
     e(  7 -  8) =     11.95278  eV     2   --> E    G_5 D_5   

 **************************************************************************

 **************************************************************************

                    xk=(   0.60000,   0.00000,   0.00000  )

     Band symmetry, C_4v (4mm)  point group:

     e(  1 -  1) =     -4.41818  eV     1   --> A_1  G_1 D_1   
     e(  2 -  2) =      1.35970  eV     1   --> B_2  G_4 D_2'  
     e(  3 -  4) =      3.62169  eV     2   --> E    G_5 D_5   
     e(  5 -  5) =      6.67655  eV     1   --> A_1  G_1 D_1   
     e(  6 -  6) =      8.21722  eV     1   --> B_2  G_4 D_2'  
     e(  7 -  8) =     12.24462  eV     2   --> E    G_5 D_5   

 **************************************************************************

 **************************************************************************

                    xk=(   0.63333,   0.00000,   0.00000  )

     Band symmetry, C_4v (4mm)  point group:

     e(  1 -  1) =     -4.25146  eV     1   --> A_1  G_1 D_1   
     e(  2 -  2) =      1.07067  eV     1   --> B_2  G_4 D_2'  
     e(  3 -  4) =      3.52704  eV     2   --> E    G_5 D_5   
     e(  5 -  5) =      6.60843  eV     1   --> A_1  G_1 D_1   
     e(  6 -  6) =      8.00872  eV     1   --> B_2  G_4 D_2'  
     e(  7 -  8) =     12.53905  eV     2   --> E    G_5 D_5   

 **************************************************************************

 **************************************************************************

                    xk=(   0.66667,   0.00000,   0.00000  )

     Band symmetry, C_4v (4mm)  point group:

     e(  1 -  1) =     -4.07661  eV     1   --> A_1  G_1 D_1   
     e(  2 -  2) =      0.78323  eV     1   --> B_2  G_4 D_2'  
     e(  3 -  4) =      3.44008  eV     2   --> E    G_5 D_5   
     e(  5 -  5) =      6.54962  eV     1   --> A_1  G_1 D_1   
     e(  6 -  6) =      7.81153  eV     1   --> B_2  G_4 D_2'  
     e(  7 -  8) =     12.83580  eV     2   --> E    G_5 D_5   

 **************************************************************************

 **************************************************************************

                    xk=(   0.70000,   0.00000,   0.00000  )

     Band symmetry, C_4v (4mm)  point group:

     e(  1 -  1) =     -3.89376  eV     1   --> A_1  G_1 D_1   
     e(  2 -  2) =      0.49774  eV     1   --> B_2  G_4 D_2'  
     e(  3 -  4) =      3.36100  eV     2   --> E    G_5 D_5   
     e(  5 -  5) =      6.50057  eV     1   --> A_1  G_1 D_1   
     e(  6 -  6) =      7.62653  eV     1   --> B_2  G_4 D_2'  
     e(  7 -  8) =     13.13461  eV     2   --> E    G_5 D_5   

 **************************************************************************

 **************************************************************************

                    xk=(   0.73333,   0.00000,   0.00000  )

     Band symmetry, C_4v (4mm)  point group:

     e(  1 -  1) =     -3.70309  eV     1   --> A_1  G_1 D_1   
     e(  2 -  2) =      0.21458  eV     1   --> B_2  G_4 D_2'  
     e(  3 -  4) =      3.28992  eV     2   --> E    G_5 D_5   
     e(  5 -  5) =      6.46167  eV     1   --> A_1  G_1 D_1   
     e(  6 -  6) =      7.45428  eV     1   --> B_2  G_4 D_2'  
     e(  7 -  8) =     13.43515  eV     2   --> E    G_5 D_5   

 **************************************************************************

 **************************************************************************

                    xk=(   0.76667,   0.00000,   0.00000  )

     Band symmetry, C_4v (4mm)  point group:

     e(  1 -  1) =     -3.50479  eV     1   --> A_1  G_1 D_1   
     e(  2 -  2) =     -0.06586  eV     1   --> B_2  G_4 D_2'  
     e(  3 -  4) =      3.22697  eV     2   --> E    G_5 D_5   
     e(  5 -  5) =      6.43328  eV     1   --> A_1  G_1 D_1   
     e(  6 -  6) =      7.29515  eV     1   --> B_2  G_4 D_2'  
     e(  7 -  8) =     13.73692  eV     2   --> E    G_5 D_5   

 **************************************************************************

 **************************************************************************

                    xk=(   0.80000,   0.00000,   0.00000  )

     Band symmetry, C_4v (4mm)  point group:

     e(  1 -  1) =     -3.29905  eV     1   --> A_1  G_1 D_1   
     e(  2 -  2) =     -0.34322  eV     1   --> B_2  G_4 D_2'  
     e(  3 -  4) =      3.17223  eV     2   --> E    G_5 D_5   
     e(  5 -  5) =      6.41574  eV     1   --> A_1  G_1 D_1   
     e(  6 -  6) =      7.14936  eV     1   --> B_2  G_4 D_2'  
     e(  7 -  8) =     14.03914  eV     2   --> E    G_5 D_5   

 **************************************************************************

 **************************************************************************

                    xk=(   0.83333,   0.00000,   0.00000  )

     Band symmetry, C_4v (4mm)  point group:

     e(  1 -  1) =     -3.08607  eV     1   --> A_1  G_1 D_1   
     e(  2 -  2) =     -0.61710  eV     1   --> B_2  G_4 D_2'  
     e(  3 -  4) =      3.12579  eV     2   --> E    G_5 D_5   
     e(  5 -  5) =      6.40937  eV     1   --> A_1  G_1 D_1   
     e(  6 -  6) =      7.01700  eV     1   --> B_2  G_4 D_2'  
     e(  7 -  8) =     14.34041  eV     2   --> E    G_5 D_5   

 **************************************************************************

 **************************************************************************

                    xk=(   0.86667,   0.00000,   0.00000  )

     Band symmetry, C_4v (4mm)  point group:

     e(  1 -  1) =     -2.86610  eV     1   --> A_1  G_1 D_1   
     e(  2 -  2) =     -0.88713  eV     1   --> B_2  G_4 D_2'  
     e(  3 -  4) =      3.08771  eV     2   --> E    G_5 D_5   
     e(  5 -  5) =      6.41444  eV     1   --> A_1  G_1 D_1   
     e(  6 -  6) =      6.89806  eV     1   --> B_2  G_4 D_2'  
     e(  7 -  8) =     14.63812  eV     2   --> E    G_5 D_5   

 **************************************************************************

 **************************************************************************

                    xk=(   0.90000,   0.00000,   0.00000  )

     Band symmetry, C_4v (4mm)  point group:

     e(  1 -  1) =     -2.63938  eV     1   --> A_1  G_1 D_1   
     e(  2 -  2) =     -1.15293  eV     1   --> B_2  G_4 D_2'  
     e(  3 -  4) =      3.05803  eV     2   --> E    G_5 D_5   
     e(  5 -  5) =      6.43125  eV     1   --> A_1  G_1 D_1   
     e(  6 -  6) =      6.79250  eV     1   --> B_2  G_4 D_2'  
     e(  7 -  8) =     14.92686  eV     2   --> E    G_5 D_5   

 **************************************************************************

 **************************************************************************

                    xk=(   0.93333,   0.00000,   0.00000  )

     Band symmetry, C_4v (4mm)  point group:

     e(  1 -  1) =     -2.40616  eV     1   --> A_1  G_1 D_1   
     e(  2 -  2) =     -1.41413  eV     1   --> B_2  G_4 D_2'  
     e(  3 -  4) =      3.03682  eV     2   --> E    G_5 D_5   
     e(  5 -  5) =      6.46007  eV     1   --> A_1  G_1 D_1   
     e(  6 -  6) =      6.70019  eV     1   --> B_2  G_4 D_2'  
     e(  7 -  8) =     15.19409  eV     2   --> E    G_5 D_5   

 **************************************************************************

 **************************************************************************

                    xk=(   0.96667,   0.00000,   0.00000  )

     Band symmetry, C_4v (4mm)  point group:

     e(  1 -  1) =     -2.16672  eV     1   --> A_1  G_1 D_1   
     e(  2 -  2) =     -1.67039  eV     1   --> B_2  G_4 D_2'  
     e(  3 -  4) =      3.02407  eV     2   --> E    G_5 D_5   
     e(  5 -  5) =      6.50114  eV     1   --> A_1  G_1 D_1   
     e(  6 -  6) =      6.62098  eV     1   --> B_2  G_4 D_2'  
     e(  7 -  8) =     15.40791  eV     2   --> E    G_5 D_5   

 **************************************************************************

 **************************************************************************

                    xk=(   1.00000,   0.00000,   0.00000  )

     zone border point and non-symmorphic group 
     symmetry decomposition not available

 **************************************************************************

 **************************************************************************

                    xk=(   1.00000,   0.02500,   0.02500  )

     zone border point and non-symmorphic group 
     symmetry decomposition not available

 **************************************************************************

 **************************************************************************

                    xk=(   1.00000,   0.05000,   0.05000  )

     zone border point and non-symmorphic group 
     symmetry decomposition not available

 **************************************************************************

 **************************************************************************

                    xk=(   1.00000,   0.07500,   0.07500  )

     zone border point and non-symmorphic group 
     symmetry decomposition not available

 **************************************************************************

 **************************************************************************

                    xk=(   1.00000,   0.10000,   0.10000  )

     zone border point and non-symmorphic group 
     symmetry decomposition not available

 **************************************************************************

 **************************************************************************

                    xk=(   1.00000,   0.12500,   0.12500  )

     zone border point and non-symmorphic group 
     symmetry decomposition not available

 **************************************************************************

 **************************************************************************

                    xk=(   1.00000,   0.15000,   0.15000  )

     zone border point and non-symmorphic group 
     symmetry decomposition not available

 **************************************************************************

 **************************************************************************

                    xk=(   1.00000,   0.17500,   0.17500  )

     zone border point and non-symmorphic group 
     symmetry decomposition not available

 **************************************************************************

 **************************************************************************

                    xk=(   1.00000,   0.20000,   0.20000  )

     zone border point and non-symmorphic group 
     symmetry decomposition not available

 **************************************************************************

 **************************************************************************

                    xk=(   1.00000,   0.22500,   0.22500  )

     zone border point and non-symmorphic group 
     symmetry decomposition not available

 **************************************************************************

 **************************************************************************

                    xk=(   1.00000,   0.25000,   0.25000  )

     zone border point and non-symmorphic group 
     symmetry decomposition not available

 **************************************************************************

 **************************************************************************

                    xk=(   0.96667,   0.24167,   0.24167  )

     point group C_s (m)    
     there are  2 classes
     the character table:

       E     s    
A'     1.00  1.00
A''    1.00 -1.00

     the symmetry operations in each class and the name of the first element:

     E        1
                                                                 
     s        2
                                                                 

     Band symmetry, C_s (m)     point group:

     e(  1 -  1) =     -2.33947  eV     1   --> A'             
     e(  2 -  2) =     -1.34909  eV     1   --> A'             
     e(  3 -  3) =      1.70002  eV     1   --> A'             
     e(  4 -  4) =      3.40779  eV     1   --> A''            
     e(  5 -  5) =      7.00039  eV     1   --> A'             
     e(  6 -  6) =      9.69902  eV     1   --> A'             
     e(  7 -  7) =     13.07499  eV     1   --> A''            
     e(  8 -  8) =     13.40192  eV     1   --> A'             

 **************************************************************************

 **************************************************************************

                    xk=(   0.93333,   0.23333,   0.23333  )

     Band symmetry, C_s (m)     point group:

     e(  1 -  1) =     -2.41971  eV     1   --> A'             
     e(  2 -  2) =     -1.27620  eV     1   --> A'             
     e(  3 -  3) =      1.76852  eV     1   --> A'             
     e(  4 -  4) =      3.39413  eV     1   --> A''            
     e(  5 -  5) =      6.98779  eV     1   --> A'             
     e(  6 -  6) =      9.55532  eV     1   --> A'             
     e(  7 -  7) =     13.00737  eV     1   --> A''            
     e(  8 -  8) =     13.18237  eV     1   --> A'             

 **************************************************************************

 **************************************************************************

                    xk=(   0.90000,   0.22500,   0.22500  )

     Band symmetry, C_s (m)     point group:

     e(  1 -  1) =     -2.55738  eV     1   --> A'             
     e(  2 -  2) =     -1.14496  eV     1   --> A'             
     e(  3 -  3) =      1.85944  eV     1   --> A'             
     e(  4 -  4) =      3.38923  eV     1   --> A''            
     e(  5 -  5) =      6.98676  eV     1   --> A'             
     e(  6 -  6) =      9.42575  eV     1   --> A'             
     e(  7 -  7) =     12.89007  eV     1   --> A''            
     e(  8 -  8) =     12.96296  eV     1   --> A'             

 **************************************************************************

 **************************************************************************

                    xk=(   0.86667,   0.21667,   0.21667  )

     Band symmetry, C_s (m)     point group:

     e(  1 -  1) =     -2.72823  eV     1   --> A'             
     e(  2 -  2) =     -0.97657  eV     1   --> A'             
     e(  3 -  3) =      1.96946  eV     1   --> A'             
     e(  4 -  4) =      3.39320  eV     1   --> A''            
     e(  5 -  5) =      6.99686  eV     1   --> A'             
     e(  6 -  6) =      9.31120  eV     1   --> A'             
     e(  7 -  7) =     12.74491  eV     1   --> A'             
     e(  8 -  8) =     12.75167  eV     1   --> A''            

 **************************************************************************

 **************************************************************************

                    xk=(   0.83333,   0.20833,   0.20833  )

     Band symmetry, C_s (m)     point group:

     e(  1 -  1) =     -2.91636  eV     1   --> A'             
     e(  2 -  2) =     -0.78444  eV     1   --> A'             
     e(  3 -  3) =      2.09569  eV     1   --> A'             
     e(  4 -  4) =      3.40614  eV     1   --> A''            
     e(  5 -  5) =      7.01743  eV     1   --> A'             
     e(  6 -  6) =      9.21270  eV     1   --> A'             
     e(  7 -  7) =     12.52865  eV     1   --> A'             
     e(  8 -  8) =     12.60474  eV     1   --> A''            

 **************************************************************************

 **************************************************************************

                    xk=(   0.80000,   0.20000,   0.20000  )

     Band symmetry, C_s (m)     point group:

     e(  1 -  1) =     -3.11266  eV     1   --> A'             
     e(  2 -  2) =     -0.57570  eV     1   --> A'             
     e(  3 -  3) =      2.23565  eV     1   --> A'             
     e(  4 -  4) =      3.42810  eV     1   --> A''            
     e(  5 -  5) =      7.04753  eV     1   --> A'             
     e(  6 -  6) =      9.13147  eV     1   --> A'             
     e(  7 -  7) =     12.31442  eV     1   --> A'             
     e(  8 -  8) =     12.45463  eV     1   --> A''            

 **************************************************************************

 **************************************************************************

                    xk=(   0.76667,   0.19167,   0.19167  )

     Band symmetry, C_s (m)     point group:

     e(  1 -  1) =     -3.31172  eV     1   --> A'             
     e(  2 -  2) =     -0.35414  eV     1   --> A'             
     e(  3 -  3) =      2.38719  eV     1   --> A'             
     e(  4 -  4) =      3.45911  eV     1   --> A''            
     e(  5 -  5) =      7.08595  eV     1   --> A'             
     e(  6 -  6) =      9.06893  eV     1   --> A'             
     e(  7 -  7) =     12.10242  eV     1   --> A'             
     e(  8 -  8) =     12.30348  eV     1   --> A''            

 **************************************************************************

 **************************************************************************

                    xk=(   0.73333,   0.18333,   0.18333  )

     Band symmetry, C_s (m)     point group:

     e(  1 -  1) =     -3.51014  eV     1   --> A'             
     e(  2 -  2) =     -0.12190  eV     1   --> A'             
     e(  3 -  3) =      2.54842  eV     1   --> A'             
     e(  4 -  4) =      3.49919  eV     1   --> A''            
     e(  5 -  5) =      7.13115  eV     1   --> A'             
     e(  6 -  6) =      9.02667  eV     1   --> A'             
     e(  7 -  7) =     11.89284  eV     1   --> A'             
     e(  8 -  8) =     12.15187  eV     1   --> A''            

 **************************************************************************

 **************************************************************************

                    xk=(   0.70000,   0.17500,   0.17500  )

     Band symmetry, C_s (m)     point group:

     e(  1 -  1) =     -3.70565  eV     1   --> A'             
     e(  2 -  2) =      0.11974  eV     1   --> A'             
     e(  3 -  3) =      2.71762  eV     1   --> A'             
     e(  4 -  4) =      3.54831  eV     1   --> A''            
     e(  5 -  5) =      7.18136  eV     1   --> A'             
     e(  6 -  6) =      9.00633  eV     1   --> A'             
     e(  7 -  7) =     11.68594  eV     1   --> A'             
     e(  8 -  8) =     11.99948  eV     1   --> A''            

 **************************************************************************

 **************************************************************************

                    xk=(   0.66667,   0.16667,   0.16667  )

     Band symmetry, C_s (m)     point group:

     e(  1 -  1) =     -3.89662  eV     1   --> A'             
     e(  2 -  2) =      0.36995  eV     1   --> A'             
     e(  3 -  3) =      2.89327  eV     1   --> A'             
     e(  4 -  4) =      3.60643  eV     1   --> A''            
     e(  5 -  5) =      7.23467  eV     1   --> A'             
     e(  6 -  6) =      9.00944  eV     1   --> A'             
     e(  7 -  7) =     11.48211  eV     1   --> A'             
     e(  8 -  8) =     11.84544  eV     1   --> A''            

 **************************************************************************

 **************************************************************************

                    xk=(   0.63333,   0.15833,   0.15833  )

     Band symmetry, C_s (m)     point group:

     e(  1 -  1) =     -4.08185  eV     1   --> A'             
     e(  2 -  2) =      0.62818  eV     1   --> A'             
     e(  3 -  3) =      3.07392  eV     1   --> A'             
     e(  4 -  4) =      3.67346  eV     1   --> A''            
     e(  5 -  5) =      7.28927  eV     1   --> A'             
     e(  6 -  6) =      9.03706  eV     1   --> A'             
     e(  7 -  7) =     11.28198  eV     1   --> A'             
     e(  8 -  8) =     11.68847  eV     1   --> A''            

 **************************************************************************

 **************************************************************************

                    xk=(   0.60000,   0.15000,   0.15000  )

     Band symmetry, C_s (m)     point group:

     e(  1 -  1) =     -4.26044  eV     1   --> A'             
     e(  2 -  2) =      0.89398  eV     1   --> A'             
     e(  3 -  3) =      3.25825  eV     1   --> A'             
     e(  4 -  4) =      3.74930  eV     1   --> A''            
     e(  5 -  5) =      7.34370  eV     1   --> A'             
     e(  6 -  6) =      9.08930  eV     1   --> A'             
     e(  7 -  7) =     11.08653  eV     1   --> A'             
     e(  8 -  8) =     11.52708  eV     1   --> A''            

 **************************************************************************

 **************************************************************************

                    xk=(   0.56667,   0.14167,   0.14167  )

     Band symmetry, C_s (m)     point group:

     e(  1 -  1) =     -4.43168  eV     1   --> A'             
     e(  2 -  2) =      1.16701  eV     1   --> A'             
     e(  3 -  3) =      3.44501  eV     1   --> A'             
     e(  4 -  4) =      3.83380  eV     1   --> A''            
     e(  5 -  5) =      7.39708  eV     1   --> A'             
     e(  6 -  6) =      9.16467  eV     1   --> A'             
     e(  7 -  7) =     10.89741  eV     1   --> A'             
     e(  8 -  8) =     11.35964  eV     1   --> A''            

 **************************************************************************

 **************************************************************************

                    xk=(   0.53333,   0.13333,   0.13333  )

     Band symmetry, C_s (m)     point group:

     e(  1 -  1) =     -4.59498  eV     1   --> A'             
     e(  2 -  2) =      1.44692  eV     1   --> A'             
     e(  3 -  3) =      3.63300  eV     1   --> A'             
     e(  4 -  4) =      3.92677  eV     1   --> A''            
     e(  5 -  5) =      7.44927  eV     1   --> A'             
     e(  6 -  6) =      9.25917  eV     1   --> A'             
     e(  7 -  7) =     10.71761  eV     1   --> A'             
     e(  8 -  8) =     11.18465  eV     1   --> A''            

 **************************************************************************

 **************************************************************************

                    xk=(   0.50000,   0.12500,   0.12500  )

     Band symmetry, C_s (m)     point group:

     e(  1 -  1) =     -4.74991  eV     1   --> A'             
     e(  2 -  2) =      1.73340  eV     1   --> A'             
     e(  3 -  3) =      3.82110  eV     1   --> A'             
     e(  4 -  4) =      4.02797  eV     1   --> A''            
     e(  5 -  5) =      7.50077  eV     1   --> A'             
     e(  6 -  6) =      9.36462  eV     1   --> A'             
     e(  7 -  7) =     10.55285  eV     1   --> A'             
     e(  8 -  8) =     11.00087  eV     1   --> A''            

 **************************************************************************

 **************************************************************************

                    xk=(   0.46667,   0.11667,   0.11667  )

     Band symmetry, C_s (m)     point group:

     e(  1 -  1) =     -4.89606  eV     1   --> A'             
     e(  2 -  2) =      2.02608  eV     1   --> A'             
     e(  3 -  3) =      4.00819  eV     1   --> A'             
     e(  4 -  4) =      4.13709  eV     1   --> A''            
     e(  5 -  5) =      7.55250  eV     1   --> A'             
     e(  6 -  6) =      9.46515  eV     1   --> A'             
     e(  7 -  7) =     10.41491  eV     1   --> A'             
     e(  8 -  8) =     10.80755  eV     1   --> A''            

 **************************************************************************

 **************************************************************************

                    xk=(   0.43333,   0.10833,   0.10833  )

     Band symmetry, C_s (m)     point group:

     e(  1 -  1) =     -5.03314  eV     1   --> A'             
     e(  2 -  2) =      2.32454  eV     1   --> A'             
     e(  3 -  3) =      4.19319  eV     1   --> A'             
     e(  4 -  4) =      4.25374  eV     1   --> A''            
     e(  5 -  5) =      7.60555  eV     1   --> A'             
     e(  6 -  6) =      9.53189  eV     1   --> A'             
     e(  7 -  7) =     10.32618  eV     1   --> A'             
     e(  8 -  8) =     10.60467  eV     1   --> A''            

 **************************************************************************

 **************************************************************************

                    xk=(   0.40000,   0.10000,   0.10000  )

     Band symmetry, C_s (m)     point group:

     e(  1 -  1) =     -5.16087  eV     1   --> A'             
     e(  2 -  2) =      2.62826  eV     1   --> A'             
     e(  3 -  3) =      4.37501  eV     1   --> A'             
     e(  4 -  4) =      4.37743  eV     1   --> A''            
     e(  5 -  5) =      7.66092  eV     1   --> A'             
     e(  6 -  6) =      9.53045  eV     1   --> A'             
     e(  7 -  7) =     10.31082  eV     1   --> A'             
     e(  8 -  8) =     10.39293  eV     1   --> A''            

 **************************************************************************

 **************************************************************************

                    xk=(   0.36667,   0.09167,   0.09167  )

     Band symmetry, C_s (m)     point group:

     e(  1 -  1) =     -5.27904  eV     1   --> A'             
     e(  2 -  2) =      2.93660  eV     1   --> A'             
     e(  3 -  3) =      4.50751  eV     1   --> A''            
     e(  4 -  4) =      4.55253  eV     1   --> A'             
     e(  5 -  5) =      7.71938  eV     1   --> A'             
     e(  6 -  6) =      9.45737  eV     1   --> A'             
     e(  7 -  7) =     10.17382  eV     1   --> A''            
     e(  8 -  8) =     10.35522  eV     1   --> A'             

 **************************************************************************

 **************************************************************************

                    xk=(   0.33333,   0.08333,   0.08333  )

     Band symmetry, C_s (m)     point group:

     e(  1 -  1) =     -5.38746  eV     1   --> A'             
     e(  2 -  2) =      3.24872  eV     1   --> A'             
     e(  3 -  3) =      4.64317  eV     1   --> A''            
     e(  4 -  4) =      4.72455  eV     1   --> A'             
     e(  5 -  5) =      7.78127  eV     1   --> A'             
     e(  6 -  6) =      9.34145  eV     1   --> A'             
     e(  7 -  7) =      9.94949  eV     1   --> A''            
     e(  8 -  8) =     10.40242  eV     1   --> A'             

 **************************************************************************

 **************************************************************************

                    xk=(   0.30000,   0.07500,   0.07500  )

     Band symmetry, C_s (m)     point group:

     e(  1 -  1) =     -5.48596  eV     1   --> A'             
     e(  2 -  2) =      3.56349  eV     1   --> A'             
     e(  3 -  3) =      4.78333  eV     1   --> A''            
     e(  4 -  4) =      4.88981  eV     1   --> A'             
     e(  5 -  5) =      7.84649  eV     1   --> A'             
     e(  6 -  6) =      9.20756  eV     1   --> A'             
     e(  7 -  7) =      9.72266  eV     1   --> A''            
     e(  8 -  8) =     10.38951  eV     1   --> A'             

 **************************************************************************

 **************************************************************************

                    xk=(   0.26667,   0.06667,   0.06667  )

     Band symmetry, C_s (m)     point group:

     e(  1 -  1) =     -5.57441  eV     1   --> A'             
     e(  2 -  2) =      3.87939  eV     1   --> A'             
     e(  3 -  3) =      4.92657  eV     1   --> A''            
     e(  4 -  4) =      5.04687  eV     1   --> A'             
     e(  5 -  5) =      7.91441  eV     1   --> A'             
     e(  6 -  6) =      9.06896  eV     1   --> A'             
     e(  7 -  7) =      9.49651  eV     1   --> A''            
     e(  8 -  8) =     10.27760  eV     1   --> A'             

 **************************************************************************

 **************************************************************************

                    xk=(   0.23333,   0.05833,   0.05833  )

     Band symmetry, C_s (m)     point group:

     e(  1 -  1) =     -5.65270  eV     1   --> A'             
     e(  2 -  2) =      4.19425  eV     1   --> A'             
     e(  3 -  3) =      5.07099  eV     1   --> A''            
     e(  4 -  4) =      5.19411  eV     1   --> A'             
     e(  5 -  5) =      7.98381  eV     1   --> A'             
     e(  6 -  6) =      8.93261  eV     1   --> A'             
     e(  7 -  7) =      9.27470  eV     1   --> A''            
     e(  8 -  8) =     10.07395  eV     1   --> A'             

 **************************************************************************

 **************************************************************************

                    xk=(   0.20000,   0.05000,   0.05000  )

     Band symmetry, C_s (m)     point group:

     e(  1 -  1) =     -5.72073  eV     1   --> A'             
     e(  2 -  2) =      4.50494  eV     1   --> A'             
     e(  3 -  3) =      5.21399  eV     1   --> A''            
     e(  4 -  4) =      5.32966  eV     1   --> A'             
     e(  5 -  5) =      8.05289  eV     1   --> A'             
     e(  6 -  6) =      8.80274  eV     1   --> A'             
     e(  7 -  7) =      9.06142  eV     1   --> A''            
     e(  8 -  8) =      9.81396  eV     1   --> A'             

 **************************************************************************

 **************************************************************************

                    xk=(   0.16667,   0.04167,   0.04167  )

     Band symmetry, C_s (m)     point group:

     e(  1 -  1) =     -5.77842  eV     1   --> A'             
     e(  2 -  2) =      4.80674  eV     1   --> A'             
     e(  3 -  3) =      5.35208  eV     1   --> A''            
     e(  4 -  4) =      5.45136  eV     1   --> A'             
     e(  5 -  5) =      8.11922  eV     1   --> A'             
     e(  6 -  6) =      8.68232  eV     1   --> A'             
     e(  7 -  7) =      8.86155  eV     1   --> A''            
     e(  8 -  8) =      9.53152  eV     1   --> A'             

 **************************************************************************

 **************************************************************************

                    xk=(   0.13333,   0.03333,   0.03333  )

     Band symmetry, C_s (m)     point group:

     e(  1 -  1) =     -5.82570  eV     1   --> A'             
     e(  2 -  2) =      5.09238  eV     1   --> A'             
     e(  3 -  3) =      5.48052  eV     1   --> A''            
     e(  4 -  4) =      5.55672  eV     1   --> A'             
     e(  5 -  5) =      8.17991  eV     1   --> A'             
     e(  6 -  6) =      8.57345  eV     1   --> A'             
     e(  7 -  7) =      8.68102  eV     1   --> A''            
     e(  8 -  8) =      9.25260  eV     1   --> A'             

 **************************************************************************

 **************************************************************************

                    xk=(   0.10000,   0.02500,   0.02500  )

     Band symmetry, C_s (m)     point group:

     e(  1 -  1) =     -5.86253  eV     1   --> A'             
     e(  2 -  2) =      5.35052  eV     1   --> A'             
     e(  3 -  3) =      5.59316  eV     1   --> A''            
     e(  4 -  4) =      5.64297  eV     1   --> A'             
     e(  5 -  5) =      8.23174  eV     1   --> A'             
     e(  6 -  6) =      8.47722  eV     1   --> A'             
     e(  7 -  7) =      8.52693  eV     1   --> A''            
     e(  8 -  8) =      9.00038  eV     1   --> A'             

 **************************************************************************

 **************************************************************************

                    xk=(   0.06667,   0.01667,   0.01667  )

     Band symmetry, C_s (m)     point group:

     e(  1 -  1) =     -5.88887  eV     1   --> A'             
     e(  2 -  2) =      5.56384  eV     1   --> A'             
     e(  3 -  3) =      5.68245  eV     1   --> A''            
     e(  4 -  4) =      5.70729  eV     1   --> A'             
     e(  5 -  5) =      8.27151  eV     1   --> A'             
     e(  6 -  6) =      8.39430  eV     1   --> A'             
     e(  7 -  7) =      8.40751  eV     1   --> A''            
     e(  8 -  8) =      8.79998  eV     1   --> A'             

 **************************************************************************

 **************************************************************************

                    xk=(   0.03333,   0.00833,   0.00833  )

     Band symmetry, C_s (m)     point group:

     e(  1 -  1) =     -5.90468  eV     1   --> A'             
     e(  2 -  2) =      5.70864  eV     1   --> A'             
     e(  3 -  3) =      5.74043  eV     1   --> A''            
     e(  4 -  4) =      5.74711  eV     1   --> A'             
     e(  5 -  5) =      8.29648  eV     1   --> A'             
     e(  6 -  6) =      8.33063  eV     1   --> A'             
     e(  7 -  7) =      8.33126  eV     1   --> A''            
     e(  8 -  8) =      8.67473  eV     1   --> A'             

 **************************************************************************

 **************************************************************************

                    xk=(   0.00000,   0.00000,   0.00000  )

     point group O_h (m-3m) 
     there are 10 classes
     the character table:

       E     8C3   3C2   6C4   6C2'  i     8S6   3s_h  6S4   6s_d 
A_1g   1.00  1.00  1.00  1.00  1.00  1.00  1.00  1.00  1.00  1.00
A_2g   1.00  1.00  1.00 -1.00 -1.00  1.00  1.00  1.00 -1.00 -1.00
E_g    2.00 -1.00  2.00  0.00  0.00  2.00 -1.00  2.00  0.00  0.00
T_1g   3.00  0.00 -1.00  1.00 -1.00  3.00  0.00 -1.00  1.00 -1.00
T_2g   3.00  0.00 -1.00 -1.00  1.00  3.00  0.00 -1.00 -1.00  1.00
A_1u   1.00  1.00  1.00  1.00  1.00 -1.00 -1.00 -1.00 -1.00 -1.00
A_2u   1.00  1.00  1.00 -1.00 -1.00 -1.00 -1.00 -1.00  1.00  1.00
E_u    2.00 -1.00  2.00  0.00  0.00 -2.00  1.00 -2.00  0.00  0.00
T_1u   3.00  0.00 -1.00  1.00 -1.00 -3.00  0.00  1.00 -1.00  1.00
T_2u   3.00  0.00 -1.00 -1.00  1.00 -3.00  0.00  1.00  1.00 -1.00

     the symmetry operations in each class and the name of the first element:

     E        1
                                                                 
     8C3     17   19   20   18   24   21   22   23
                                                                 
     3C2      2    4    3
                                                                 
     6C4      7    8   15   16   12   11
                                                                 
     6C2'     5    6   14   13   10    9
                                                                 
     i       25
                                                                 
     8S6     41   43   44   42   48   45   46   47
                                                                 
     3s_h    26   28   27
                                                                 
     6S4     31   32   39   40   36   35
                                                                 
     6s_d    29   30   38   37   34   33
                                                                 

     Band symmetry, O_h (m-3m)  point group:

     e(  1 -  1) =     -5.90996  eV     1   --> A_1g G_1   G_1+
     e(  2 -  4) =      5.76060  eV     3   --> T_2g G_25' G_5+
     e(  5 -  7) =      8.30497  eV     3   --> T_1u G_15  G_4-
     e(  8 -  8) =      8.63341  eV     1   --> A_2u G_2'  G_2-

 **************************************************************************

     BANDS        :      3.24s CPU      3.60s WALL


   This run was terminated on:   8:53:40   3Jul2025            

=------------------------------------------------------------------------------=
   JOB DONE.
=------------------------------------------------------------------------------=
