
     Program PWSCF v.7.4.1 starts on 18Jul2025 at 14:17:24 

     This program is part of the open-source Quantum ESPRESSO suite
     for quantum simulation of materials; please cite
         "P. Giannozzi et al., J. Phys.:Condens. Matter 21 395502 (2009);
         "P. Giannozzi et al., J. Phys.:Condens. Matter 29 465901 (2017);
         "P. Giannozzi et al., J. Chem. Phys. 152 154105 (2020);
          URL http://www.quantum-espresso.org", 
     in publications or presentations arising from this work. More details at
     http://www.quantum-espresso.org/quote

     Parallel version (MPI), running on     4 processors

     MPI processes distributed on     1 nodes
     90 MiB available memory on the printing compute node when the environment starts

     Waiting for input...
     Reading input from standard input

     Current dimensions of program PWSCF are:
     Max number of different atomic species (ntypx) = 10
     Max number of k-points (npk) =  40000
     Max angular momentum in pseudopotentials (lmaxx) =  4
     file C.pbe-n-kjpaw_psl.1.0.0.UPF: wavefunction(s)  2S 2P renormalized

     R & G space division:  proc/nbgrp/npool/nimage =       4
     Subspace diagonalization in iterative solution of the eigenvalue problem:
     a serial algorithm will be used


     Parallelization info
     --------------------
     sticks:   dense  smooth     PW     G-vecs:    dense   smooth      PW
     Min          75      75     22                 3131     3131     552
     Max          76      76     23                 3134     3134     555
     Sum         301     301     91                12531    12531    2213

     Using Slab Decomposition



     bravais-lattice index     =            4
     lattice parameter (alat)  =       4.6540  a.u.
     unit-cell volume          =     261.8973 (a.u.)^3
     number of atoms/cell      =            2
     number of atomic types    =            1
     number of electrons       =         8.00
     number of Kohn-Sham states=            8
     kinetic-energy cutoff     =      50.0000  Ry
     charge density cutoff     =     200.0000  Ry
     scf convergence threshold =      1.0E-08
     mixing beta               =       0.7000
     number of iterations used =            8  plain     mixing
     Exchange-correlation= SLA  PW   PBX  PBC
                           (   1   4   3   4   0   0   0)

     celldm(1)=   4.654000  celldm(2)=   0.000000  celldm(3)=   3.000000
     celldm(4)=   0.000000  celldm(5)=   0.000000  celldm(6)=   0.000000

     crystal axes: (cart. coord. in units of alat)
               a(1) = (   1.000000   0.000000   0.000000 )  
               a(2) = (  -0.500000   0.866025   0.000000 )  
               a(3) = (   0.000000   0.000000   3.000000 )  

     reciprocal axes: (cart. coord. in units 2 pi/alat)
               b(1) = (  1.000000  0.577350 -0.000000 )  
               b(2) = (  0.000000  1.154701  0.000000 )  
               b(3) = (  0.000000 -0.000000  0.333333 )  


     PseudoPot. # 1 for C  read from file:
     ./C.pbe-n-kjpaw_psl.1.0.0.UPF
     MD5 check sum: 5f16ad9a65e90284d1d834d4ab3b0f7d
     Pseudo is Projector augmented-wave + core cor, Zval =  4.0
     Generated using &quot;atomic&quot; code by A. Dal Corso  v.6.3
     Shape of augmentation charge: PSQ
     Using radial grid of 1073 points,  4 beta functions with: 
                l(1) =   0
                l(2) =   0
                l(3) =   1
                l(4) =   1
     Q(r) pseudized with 0 coefficients 


     atomic species   valence    mass     pseudopotential
     C                 4.00    12.01070     C ( 1.00)

     24 Sym. Ops., with inversion, found (12 have fractional translation)



   Cartesian axes

     site n.     atom                  positions (alat units)
         1        C      tau(   1) = (   0.0000000   0.0000000   0.0000000  )
         2        C      tau(   2) = (   0.0000000   0.5773503   0.0000000  )

     number of k points=    10  Gaussian smearing, width (Ry)=  0.0100
                       cart. coord. in units 2pi/alat
        k(    1) = (   0.0000000   0.0000000   0.0000000), wk =   0.0312500
        k(    2) = (   0.0000000   0.1443376   0.0000000), wk =   0.1875000
        k(    3) = (   0.0000000   0.2886751   0.0000000), wk =   0.1875000
        k(    4) = (   0.0000000   0.4330127   0.0000000), wk =   0.1875000
        k(    5) = (   0.0000000  -0.5773503   0.0000000), wk =   0.0937500
        k(    6) = (   0.1250000   0.2165064   0.0000000), wk =   0.1875000
        k(    7) = (   0.1250000   0.3608439   0.0000000), wk =   0.3750000
        k(    8) = (   0.1250000   0.5051815   0.0000000), wk =   0.3750000
        k(    9) = (   0.2500000   0.4330127   0.0000000), wk =   0.1875000
        k(   10) = (   0.2500000   0.5773503   0.0000000), wk =   0.1875000

     Dense  grid:    12531 G-vectors     FFT dimensions: (  24,  24,  64)

     Estimated max dynamical RAM per process >       5.03 MB

     Estimated total dynamical RAM >      20.13 MB

     Check: negative core charge=   -0.000041

     Initial potential from superposition of free atoms

     starting charge       7.9999, renormalised to       8.0000
     Starting wfcs are    8 randomized atomic wfcs
     Checking if some PAW data can be deallocated... 

     total cpu time spent up to now is        0.7 secs

     Self-consistent Calculation

     iteration #  1     ecut=    50.00 Ry     beta= 0.70
     Davidson diagonalization with overlap
     ethr =  1.00E-02,  avg # of iterations =  5.2

     negative rho (up, down):  2.199E-07 0.000E+00

     total cpu time spent up to now is        0.9 secs

     total energy              =     -36.85869618 Ry
     estimated scf accuracy    <       0.19746568 Ry

     iteration #  2     ecut=    50.00 Ry     beta= 0.70
     Davidson diagonalization with overlap
     ethr =  2.47E-03,  avg # of iterations =  3.0

     negative rho (up, down):  8.817E-06 0.000E+00

     total cpu time spent up to now is        1.1 secs

     total energy              =     -36.88711583 Ry
     estimated scf accuracy    <       0.00213184 Ry

     iteration #  3     ecut=    50.00 Ry     beta= 0.70
     Davidson diagonalization with overlap
     ethr =  2.66E-05,  avg # of iterations =  7.5

     negative rho (up, down):  2.745E-05 0.000E+00

     total cpu time spent up to now is        1.3 secs

     total energy              =     -36.88738828 Ry
     estimated scf accuracy    <       0.00015551 Ry

     iteration #  4     ecut=    50.00 Ry     beta= 0.70
     Davidson diagonalization with overlap
     ethr =  1.94E-06,  avg # of iterations =  2.5

     negative rho (up, down):  2.890E-05 0.000E+00

     total cpu time spent up to now is        1.4 secs

     total energy              =     -36.88739957 Ry
     estimated scf accuracy    <       0.00000115 Ry

     iteration #  5     ecut=    50.00 Ry     beta= 0.70
     Davidson diagonalization with overlap
     ethr =  1.43E-08,  avg # of iterations =  3.1

     negative rho (up, down):  2.901E-05 0.000E+00

     total cpu time spent up to now is        1.5 secs

     total energy              =     -36.88740051 Ry
     estimated scf accuracy    <       0.00000004 Ry

     iteration #  6     ecut=    50.00 Ry     beta= 0.70
     Davidson diagonalization with overlap
     ethr =  4.73E-10,  avg # of iterations =  2.2

     negative rho (up, down):  2.901E-05 0.000E+00

     total cpu time spent up to now is        1.7 secs

     End of self-consistent calculation

          k = 0.0000 0.0000 0.0000 (  1555 PWs)   bands (ev):

   -18.6556  -6.7435  -2.1468  -2.1468   3.4696   6.9746   9.2593   9.2593

          k = 0.0000 0.1443 0.0000 (  1555 PWs)   bands (ev):

   -18.2864  -6.3024  -3.5313  -2.8528   3.9749   7.4558   9.2331   9.6551

          k = 0.0000 0.2887 0.0000 (  1569 PWs)   bands (ev):

   -17.1880  -6.5439  -5.0093  -4.1661   5.4892   8.1112   8.9707   8.9719

          k = 0.0000 0.4330 0.0000 (  1559 PWs)   bands (ev):

   -15.3980  -9.8289  -5.1768  -3.0224   4.7084   7.9905   8.5369  11.2508

          k = 0.0000-0.5774 0.0000 (  1560 PWs)   bands (ev):

   -13.3984 -12.3705  -5.5403  -1.4638   2.5876   8.3297  11.4394  11.5396

          k = 0.1250 0.2165 0.0000 (  1575 PWs)   bands (ev):

   -17.5526  -5.4337  -5.3373  -4.2618   4.9855   8.4043   9.1457  10.0324

          k = 0.1250 0.3608 0.0000 (  1568 PWs)   bands (ev):

   -16.1075  -8.1320  -5.7841  -3.7679   6.1237   7.0008  10.2331  10.2408

          k = 0.1250 0.5052 0.0000 (  1565 PWs)   bands (ev):

   -14.0359 -11.1383  -6.5534  -1.6689   3.1456   9.8715  10.0451  12.5959

          k = 0.2500 0.4330 0.0000 (  1557 PWs)   bands (ev):

   -14.3642  -9.6489  -8.0845  -1.8438   3.7324   9.4977  11.7639  13.1210

          k = 0.2500 0.5774 0.0000 (  1559 PWs)   bands (ev):

   -12.4505 -11.5778  -8.8692  -0.1208   1.8573  11.8977  12.7407  12.8550

     the Fermi energy is     0.4668 ev

!    total energy              =     -36.88740052 Ry
     total all-electron energy =      -152.415595 Ry
     estimated scf accuracy    <          3.1E-10 Ry
     smearing contrib. (-TS)   =      -0.00000000 Ry
     internal energy E=F+TS    =     -36.88740052 Ry

     The total energy is F=E-TS. E is the sum of the following terms:
     one-electron contribution =     -55.94854569 Ry
     hartree contribution      =      30.36456753 Ry
     xc contribution           =      -9.28010790 Ry
     ewald contribution        =      10.31064953 Ry
     one-center paw contrib.   =     -12.33396400 Ry

     convergence has been achieved in   6 iterations

     Writing all to output data dir ./tmp/graphene.save/ :
     XML data file, charge density, pseudopotentials, collected wavefunctions

     init_run     :      0.32s CPU      0.37s WALL (       1 calls)
     electrons    :      0.90s CPU      0.96s WALL (       1 calls)

     Called by init_run:
     wfcinit      :      0.06s CPU      0.07s WALL (       1 calls)
     potinit      :      0.06s CPU      0.07s WALL (       1 calls)
     hinit0       :      0.17s CPU      0.19s WALL (       1 calls)

     Called by electrons:
     c_bands      :      0.55s CPU      0.57s WALL (       6 calls)
     sum_band     :      0.09s CPU      0.10s WALL (       6 calls)
     v_of_rho     :      0.04s CPU      0.04s WALL (       7 calls)
     newd         :      0.03s CPU      0.03s WALL (       7 calls)
     PAW_pot      :      0.23s CPU      0.23s WALL (       7 calls)
     mix_rho      :      0.01s CPU      0.02s WALL (       6 calls)

     Called by c_bands:
     init_us_2    :      0.01s CPU      0.01s WALL (     130 calls)
     cegterg      :      0.53s CPU      0.55s WALL (      60 calls)

     Called by *egterg:
     cdiaghg      :      0.03s CPU      0.03s WALL (     295 calls)
     h_psi        :      0.43s CPU      0.45s WALL (     305 calls)
     s_psi        :      0.02s CPU      0.02s WALL (     305 calls)
     g_psi        :      0.00s CPU      0.00s WALL (     235 calls)

     Called by h_psi:
     h_psi:calbec :      0.03s CPU      0.03s WALL (     305 calls)
     vloc_psi     :      0.39s CPU      0.40s WALL (     305 calls)
     add_vuspsi   :      0.02s CPU      0.02s WALL (     305 calls)

     General routines
     calbec       :      0.03s CPU      0.04s WALL (     365 calls)
     fft          :      0.14s CPU      0.15s WALL (      77 calls)
     ffts         :      0.00s CPU      0.00s WALL (       6 calls)
     fftw         :      0.41s CPU      0.42s WALL (    3400 calls)

     Parallel routines

     PWSCF        :      1.30s CPU      1.70s WALL


   This run was terminated on:  14:17:25  18Jul2025            

=------------------------------------------------------------------------------=
   JOB DONE.
=------------------------------------------------------------------------------=
