
     Program BANDS v.7.4.1 starts on 18Jul2025 at 14:18: 7 

     This program is part of the open-source Quantum ESPRESSO suite
     for quantum simulation of materials; please cite
         "P. Giannozzi et al., J. Phys.:Condens. Matter 21 395502 (2009);
         "P. Giannozzi et al., J. Phys.:Condens. Matter 29 465901 (2017);
         "P. Giannozzi et al., J. Chem. Phys. 152 154105 (2020);
          URL http://www.quantum-espresso.org", 
     in publications or presentations arising from this work. More details at
     http://www.quantum-espresso.org/quote

     Parallel version (MPI), running on     4 processors

     MPI processes distributed on     1 nodes
     R & G space division:  proc/nbgrp/npool/nimage =       4
     140 MiB available memory on the printing compute node when the environment starts


     Reading xml data from directory:

     ./tmp/graphene.save/
     file C.pbe-n-kjpaw_psl.1.0.0.UPF: wavefunction(s)  2S 2P renormalized

     IMPORTANT: XC functional enforced from input :
     Exchange-correlation= PBE
                           (   1   4   3   4   0   0   0)
     Any further DFT definition will be discarded
     Please, verify this is what you really want


     Parallelization info
     --------------------
     sticks:   dense  smooth     PW     G-vecs:    dense   smooth      PW
     Min          75      75     22                 3131     3131     557
     Max          76      76     23                 3134     3134     561
     Sum         301     301     91                12531    12531    2237

     Using Slab Decomposition


     Check: negative core charge=   -0.000041

     negative rho (up, down):  2.901E-05 0.000E+00
     Reading collected, re-writing distributed wavefunctions
     high-symmetry point:  0.5000 0.2887 0.0000   x coordinate   0.0000
     high-symmetry point:  0.0000 0.0000 0.0000   x coordinate   0.5774
     high-symmetry point:  0.6667 0.0000 0.0000   x coordinate   1.2440
     high-symmetry point:  0.5000 0.2887 0.0000   x coordinate   1.5774

     Plottable bands (eV) written to file graphene.bands.dat.gnu
     Bands written to file graphene.bands.dat

 **************************************************************************

                    xk=(   0.50000,   0.28868,   0.00000  )

     zone border point and non-symmorphic group 
     symmetry decomposition not available

 **************************************************************************

 **************************************************************************

                    xk=(   0.47500,   0.27424,   0.00000  )

     point group C_2v (mm2) 
     there are  4 classes
     the character table:

       E     C2    s_v   s_v' 
A_1    1.00  1.00  1.00  1.00
A_2    1.00  1.00 -1.00 -1.00
B_1    1.00 -1.00  1.00 -1.00
B_2    1.00 -1.00 -1.00  1.00

     the symmetry operations in each class and the name of the first element:

     E        1
                                                                 
     C2       2
                                                                 
     s_v      3
                                                                 
     s_v'     4
                                                                 

     Band symmetry, C_2v (mm2)  point group:

     e(  1 -  1) =    -13.62776  eV     1   --> A_1  D_1  S_1  
     e(  2 -  2) =    -12.11890  eV     1   --> A_1  D_1  S_1  
     e(  3 -  3) =     -5.52539  eV     1   --> B_1  D_3  S_3  
     e(  4 -  4) =     -1.55937  eV     1   --> B_2  D_4  S_4  
     e(  5 -  5) =      2.70653  eV     1   --> B_2  D_4  S_4  
     e(  6 -  6) =      8.33715  eV     1   --> A_1  D_1  S_1  
     e(  7 -  7) =     10.72094  eV     1   --> A_1  D_1  S_1  
     e(  8 -  8) =     12.28993  eV     1   --> A_1  D_1  S_1  
     e(  9 -  9) =     13.54027  eV     1   --> B_2  D_4  S_4  
     e( 10 - 10) =     15.13360  eV     1   --> B_2  D_4  S_4  

 **************************************************************************

 **************************************************************************

                    xk=(   0.45000,   0.25981,   0.00000  )

     Band symmetry, C_2v (mm2)  point group:

     e(  1 -  1) =    -14.05747  eV     1   --> A_1  D_1  S_1  
     e(  2 -  2) =    -11.62320  eV     1   --> A_1  D_1  S_1  
     e(  3 -  3) =     -5.48122  eV     1   --> B_1  D_3  S_3  
     e(  4 -  4) =     -1.81691  eV     1   --> B_2  D_4  S_4  
     e(  5 -  5) =      3.03334  eV     1   --> B_2  D_4  S_4  
     e(  6 -  6) =      8.35878  eV     1   --> A_1  D_1  S_1  
     e(  7 -  7) =      9.99021  eV     1   --> A_1  D_1  S_1  
     e(  8 -  8) =     12.97534  eV     1   --> B_2  D_4  S_4  
     e(  9 -  9) =     13.11449  eV     1   --> A_1  D_1  S_1  
     e( 10 - 10) =     15.16015  eV     1   --> A_1  D_1  S_1  

 **************************************************************************

 **************************************************************************

                    xk=(   0.42500,   0.24537,   0.00000  )

     Band symmetry, C_2v (mm2)  point group:

     e(  1 -  1) =    -14.51572  eV     1   --> A_1  D_1  S_1  
     e(  2 -  2) =    -11.05559  eV     1   --> A_1  D_1  S_1  
     e(  3 -  3) =     -5.40796  eV     1   --> B_1  D_3  S_3  
     e(  4 -  4) =     -2.17725  eV     1   --> B_2  D_4  S_4  
     e(  5 -  5) =      3.50793  eV     1   --> B_2  D_4  S_4  
     e(  6 -  6) =      8.39236  eV     1   --> A_1  D_1  S_1  
     e(  7 -  7) =      9.29808  eV     1   --> A_1  D_1  S_1  
     e(  8 -  8) =     12.38606  eV     1   --> B_2  D_4  S_4  
     e(  9 -  9) =     13.95229  eV     1   --> A_1  D_1  S_1  
     e( 10 - 10) =     14.54286  eV     1   --> A_1  D_1  S_1  

 **************************************************************************

 **************************************************************************

                    xk=(   0.40000,   0.23094,   0.00000  )

     Band symmetry, C_2v (mm2)  point group:

     e(  1 -  1) =    -14.96599  eV     1   --> A_1  D_1  S_1  
     e(  2 -  2) =    -10.45354  eV     1   --> A_1  D_1  S_1  
     e(  3 -  3) =     -5.30617  eV     1   --> B_1  D_3  S_3  
     e(  4 -  4) =     -2.58993  eV     1   --> B_2  D_4  S_4  
     e(  5 -  5) =      4.07803  eV     1   --> B_2  D_4  S_4  
     e(  6 -  6) =      8.41262  eV     1   --> A_1  D_1  S_1  
     e(  7 -  7) =      8.67072  eV     1   --> A_1  D_1  S_1  
     e(  8 -  8) =     11.80749  eV     1   --> B_2  D_4  S_4  
     e(  9 -  9) =     13.92932  eV     1   --> A_1  D_1  S_1  
     e( 10 - 10) =     14.81057  eV     1   --> A_1  D_1  S_1  

 **************************************************************************

 **************************************************************************

                    xk=(   0.37500,   0.21651,   0.00000  )

     Band symmetry, C_2v (mm2)  point group:

     e(  1 -  1) =    -15.39787  eV     1   --> A_1  D_1  S_1  
     e(  2 -  2) =     -9.82874  eV     1   --> A_1  D_1  S_1  
     e(  3 -  3) =     -5.17666  eV     1   --> B_1  D_3  S_3  
     e(  4 -  4) =     -3.02233  eV     1   --> B_2  D_4  S_4  
     e(  5 -  5) =      4.70850  eV     1   --> B_2  D_4  S_4  
     e(  6 -  6) =      7.99045  eV     1   --> A_1  D_1  S_1  
     e(  7 -  7) =      8.53706  eV     1   --> A_1  D_1  S_1  
     e(  8 -  8) =     11.25080  eV     1   --> B_2  D_4  S_4  
     e(  9 -  9) =     13.36279  eV     1   --> A_1  D_1  S_1  
     e( 10 - 10) =     15.60952  eV     1   --> A_1  D_1  S_1  

 **************************************************************************

 **************************************************************************

                    xk=(   0.35000,   0.20207,   0.00000  )

     Band symmetry, C_2v (mm2)  point group:

     e(  1 -  1) =    -15.80732  eV     1   --> A_1  D_1  S_1  
     e(  2 -  2) =     -9.18722  eV     1   --> A_1  D_1  S_1  
     e(  3 -  3) =     -5.02054  eV     1   --> B_1  D_3  S_3  
     e(  4 -  4) =     -3.45502  eV     1   --> B_2  D_4  S_4  
     e(  5 -  5) =      5.37637  eV     1   --> B_2  D_4  S_4  
     e(  6 -  6) =      7.41771  eV     1   --> A_1  D_1  S_1  
     e(  7 -  7) =      8.60429  eV     1   --> A_1  D_1  S_1  
     e(  8 -  8) =     10.72156  eV     1   --> B_2  D_4  S_4  
     e(  9 -  9) =     12.82528  eV     1   --> A_1  D_1  S_1  
     e( 10 - 10) =     16.27833  eV     1   --> A_1  D_1  S_1  

 **************************************************************************

 **************************************************************************

                    xk=(   0.32500,   0.18764,   0.00000  )

     Band symmetry, C_2v (mm2)  point group:

     e(  1 -  1) =    -16.19214  eV     1   --> A_1  D_1  S_1  
     e(  2 -  2) =     -8.53341  eV     1   --> A_1  D_1  S_1  
     e(  3 -  3) =     -4.83926  eV     1   --> B_1  D_3  S_3  
     e(  4 -  4) =     -3.87623  eV     1   --> B_2  D_4  S_4  
     e(  5 -  5) =      6.06554  eV     1   --> B_2  D_4  S_4  
     e(  6 -  6) =      6.87745  eV     1   --> A_1  D_1  S_1  
     e(  7 -  7) =      8.68790  eV     1   --> A_1  D_1  S_1  
     e(  8 -  8) =     10.22347  eV     1   --> B_2  D_4  S_4  
     e(  9 -  9) =     12.32112  eV     1   --> A_1  D_1  S_1  
     e( 10 - 10) =     16.66186  eV     1   --> A_1  D_1  S_1  

 **************************************************************************

 **************************************************************************

                    xk=(   0.30000,   0.17321,   0.00000  )

     Band symmetry, C_2v (mm2)  point group:

     e(  1 -  1) =    -16.55104  eV     1   --> A_1  D_1  S_1  
     e(  2 -  2) =     -7.87170  eV     1   --> A_1  D_1  S_1  
     e(  3 -  3) =     -4.63471  eV     1   --> B_1  D_3  S_3  
     e(  4 -  4) =     -4.27861  eV     1   --> B_2  D_4  S_4  
     e(  5 -  5) =      6.37531  eV     1   --> A_1  D_1  S_1  
     e(  6 -  6) =      6.76277  eV     1   --> B_2  D_4  S_4  
     e(  7 -  7) =      8.77991  eV     1   --> A_1  D_1  S_1  
     e(  8 -  8) =      9.75976  eV     1   --> B_2  D_4  S_4  
     e(  9 -  9) =     11.85210  eV     1   --> A_1  D_1  S_1  
     e( 10 - 10) =     16.05706  eV     1   --> B_1  D_3  S_3  

 **************************************************************************

 **************************************************************************

                    xk=(   0.27500,   0.15877,   0.00000  )

     Band symmetry, C_2v (mm2)  point group:

     e(  1 -  1) =    -16.88314  eV     1   --> A_1  D_1  S_1  
     e(  2 -  2) =     -7.20669  eV     1   --> A_1  D_1  S_1  
     e(  3 -  3) =     -4.65736  eV     1   --> B_2  D_4  S_4  
     e(  4 -  4) =     -4.40928  eV     1   --> B_1  D_3  S_3  
     e(  5 -  5) =      5.91240  eV     1   --> A_1  D_1  S_1  
     e(  6 -  6) =      7.45435  eV     1   --> B_2  D_4  S_4  
     e(  7 -  7) =      8.87613  eV     1   --> A_1  D_1  S_1  
     e(  8 -  8) =      9.33534  eV     1   --> B_2  D_4  S_4  
     e(  9 -  9) =     11.41950  eV     1   --> A_1  D_1  S_1  
     e( 10 - 10) =     15.20076  eV     1   --> B_1  D_3  S_3  

 **************************************************************************

 **************************************************************************

                    xk=(   0.25000,   0.14434,   0.00000  )

     Band symmetry, C_2v (mm2)  point group:

     e(  1 -  1) =    -17.18787  eV     1   --> A_1  D_1  S_1  
     e(  2 -  2) =     -6.54375  eV     1   --> A_1  D_1  S_1  
     e(  3 -  3) =     -5.00920  eV     1   --> B_2  D_4  S_4  
     e(  4 -  4) =     -4.16599  eV     1   --> B_1  D_3  S_3  
     e(  5 -  5) =      5.48920  eV     1   --> A_1  D_1  S_1  
     e(  6 -  6) =      8.11132  eV     1   --> B_2  D_4  S_4  
     e(  7 -  7) =      8.97063  eV     1   --> B_2  D_4  S_4  
     e(  8 -  8) =      8.97206  eV     1   --> A_1  D_1  S_1  
     e(  9 -  9) =     11.02441  eV     1   --> A_1  D_1  S_1  
     e( 10 - 10) =     14.35880  eV     1   --> B_1  D_3  S_3  

 **************************************************************************

 **************************************************************************

                    xk=(   0.22500,   0.12990,   0.00000  )

     Band symmetry, C_2v (mm2)  point group:

     e(  1 -  1) =    -17.46472  eV     1   --> A_1  D_1  S_1  
     e(  2 -  2) =     -5.88924  eV     1   --> A_1  D_1  S_1  
     e(  3 -  3) =     -5.33184  eV     1   --> B_2  D_4  S_4  
     e(  4 -  4) =     -3.90864  eV     1   --> B_1  D_3  S_3  
     e(  5 -  5) =      5.10593  eV     1   --> A_1  D_1  S_1  
     e(  6 -  6) =      8.43071  eV     1   --> B_2  D_4  S_4  
     e(  7 -  7) =      8.95996  eV     1   --> B_2  D_4  S_4  
     e(  8 -  8) =      9.06239  eV     1   --> A_1  D_1  S_1  
     e(  9 -  9) =     10.66785  eV     1   --> A_1  D_1  S_1  
     e( 10 - 10) =     13.54326  eV     1   --> B_1  D_3  S_3  

 **************************************************************************

 **************************************************************************

                    xk=(   0.20000,   0.11547,   0.00000  )

     Band symmetry, C_2v (mm2)  point group:

     e(  1 -  1) =    -17.71326  eV     1   --> A_1  D_1  S_1  
     e(  2 -  2) =     -5.62359  eV     1   --> B_2  D_4  S_4  
     e(  3 -  3) =     -5.25076  eV     1   --> A_1  D_1  S_1  
     e(  4 -  4) =     -3.64202  eV     1   --> B_1  D_3  S_3  
     e(  5 -  5) =      4.76276  eV     1   --> A_1  D_1  S_1  
     e(  6 -  6) =      8.18435  eV     1   --> B_2  D_4  S_4  
     e(  7 -  7) =      9.14076  eV     1   --> A_1  D_1  S_1  
     e(  8 -  8) =      9.52258  eV     1   --> B_2  D_4  S_4  
     e(  9 -  9) =     10.35098  eV     1   --> A_1  D_1  S_1  
     e( 10 - 10) =     12.76519  eV     1   --> B_1  D_3  S_3  

 **************************************************************************

 **************************************************************************

                    xk=(   0.17500,   0.10104,   0.00000  )

     Band symmetry, C_2v (mm2)  point group:

     e(  1 -  1) =    -17.93317  eV     1   --> A_1  D_1  S_1  
     e(  2 -  2) =     -5.88318  eV     1   --> B_2  D_4  S_4  
     e(  3 -  3) =     -4.63734  eV     1   --> A_1  D_1  S_1  
     e(  4 -  4) =     -3.37205  eV     1   --> B_1  D_3  S_3  
     e(  5 -  5) =      4.45981  eV     1   --> A_1  D_1  S_1  
     e(  6 -  6) =      7.91051  eV     1   --> B_2  D_4  S_4  
     e(  7 -  7) =      9.20004  eV     1   --> A_1  D_1  S_1  
     e(  8 -  8) =     10.07524  eV     1   --> A_1  D_1  S_1  
     e(  9 -  9) =     10.11085  eV     1   --> B_2  D_4  S_4  
     e( 10 - 10) =     12.03543  eV     1   --> B_1  D_3  S_3  

 **************************************************************************

 **************************************************************************

                    xk=(   0.15000,   0.08660,   0.00000  )

     Band symmetry, C_2v (mm2)  point group:

     e(  1 -  1) =    -18.12426  eV     1   --> A_1  D_1  S_1  
     e(  2 -  2) =     -6.10968  eV     1   --> B_2  D_4  S_4  
     e(  3 -  3) =     -4.05991  eV     1   --> A_1  D_1  S_1  
     e(  4 -  4) =     -3.10601  eV     1   --> B_1  D_3  S_3  
     e(  5 -  5) =      4.19715  eV     1   --> A_1  D_1  S_1  
     e(  6 -  6) =      7.66548  eV     1   --> B_2  D_4  S_4  
     e(  7 -  7) =      9.23276  eV     1   --> A_1  D_1  S_1  
     e(  8 -  8) =      9.84258  eV     1   --> A_1  D_1  S_1  
     e(  9 -  9) =     10.65872  eV     1   --> B_2  D_4  S_4  
     e( 10 - 10) =     11.36485  eV     1   --> B_1  D_3  S_3  

 **************************************************************************

 **************************************************************************

                    xk=(   0.12500,   0.07217,   0.00000  )

     Band symmetry, C_2v (mm2)  point group:

     e(  1 -  1) =    -18.28623  eV     1   --> A_1  D_1  S_1  
     e(  2 -  2) =     -6.30234  eV     1   --> B_2  D_4  S_4  
     e(  3 -  3) =     -3.53121  eV     1   --> A_1  D_1  S_1  
     e(  4 -  4) =     -2.85262  eV     1   --> B_1  D_3  S_3  
     e(  5 -  5) =      3.97485  eV     1   --> A_1  D_1  S_1  
     e(  6 -  6) =      7.45573  eV     1   --> B_2  D_4  S_4  
     e(  7 -  7) =      9.23323  eV     1   --> A_1  D_1  S_1  
     e(  8 -  8) =      9.65512  eV     1   --> A_1  D_1  S_1  
     e(  9 -  9) =     10.76519  eV     1   --> B_1  D_3  S_3  
     e( 10 - 10) =     11.14962  eV     1   --> B_2  D_4  S_4  

 **************************************************************************

 **************************************************************************

                    xk=(   0.10000,   0.05774,   0.00000  )

     Band symmetry, C_2v (mm2)  point group:

     e(  1 -  1) =    -18.41902  eV     1   --> A_1  D_1  S_1  
     e(  2 -  2) =     -6.46065  eV     1   --> B_2  D_4  S_4  
     e(  3 -  3) =     -3.06593  eV     1   --> A_1  D_1  S_1  
     e(  4 -  4) =     -2.62211  eV     1   --> B_1  D_3  S_3  
     e(  5 -  5) =      3.79295  eV     1   --> A_1  D_1  S_1  
     e(  6 -  6) =      7.28308  eV     1   --> B_2  D_4  S_4  
     e(  7 -  7) =      9.20205  eV     1   --> A_1  D_1  S_1  
     e(  8 -  8) =      9.51245  eV     1   --> A_1  D_1  S_1  
     e(  9 -  9) =     10.24865  eV     1   --> B_1  D_3  S_3  
     e( 10 - 10) =     11.57143  eV     1   --> B_2  D_4  S_4  

 **************************************************************************

 **************************************************************************

                    xk=(   0.07500,   0.04330,   0.00000  )

     Band symmetry, C_2v (mm2)  point group:

     e(  1 -  1) =    -18.52241  eV     1   --> A_1  D_1  S_1  
     e(  2 -  2) =     -6.58417  eV     1   --> B_2  D_4  S_4  
     e(  3 -  3) =     -2.67993  eV     1   --> A_1  D_1  S_1  
     e(  4 -  4) =     -2.42567  eV     1   --> B_1  D_3  S_3  
     e(  5 -  5) =      3.65147  eV     1   --> A_1  D_1  S_1  
     e(  6 -  6) =      7.14833  eV     1   --> B_2  D_4  S_4  
     e(  7 -  7) =      9.15230  eV     1   --> A_1  D_1  S_1  
     e(  8 -  8) =      9.40716  eV     1   --> A_1  D_1  S_1  
     e(  9 -  9) =      9.82825  eV     1   --> B_1  D_3  S_3  
     e( 10 - 10) =     11.91334  eV     1   --> B_2  D_4  S_4  

 **************************************************************************

 **************************************************************************

                    xk=(   0.05000,   0.02887,   0.00000  )

     Band symmetry, C_2v (mm2)  point group:

     e(  1 -  1) =    -18.59632  eV     1   --> A_1  D_1  S_1  
     e(  2 -  2) =     -6.67259  eV     1   --> B_2  D_4  S_4  
     e(  3 -  3) =     -2.38930  eV     1   --> A_1  D_1  S_1  
     e(  4 -  4) =     -2.27469  eV     1   --> B_1  D_3  S_3  
     e(  5 -  5) =      3.55042  eV     1   --> A_1  D_1  S_1  
     e(  6 -  6) =      7.05186  eV     1   --> B_2  D_4  S_4  
     e(  7 -  7) =      9.10471  eV     1   --> A_1  D_1  S_1  
     e(  8 -  8) =      9.32936  eV     1   --> A_1  D_1  S_1  
     e(  9 -  9) =      9.51655  eV     1   --> B_1  D_3  S_3  
     e( 10 - 10) =     12.16566  eV     1   --> B_2  D_4  S_4  

 **************************************************************************

 **************************************************************************

                    xk=(   0.02500,   0.01443,   0.00000  )

     Band symmetry, C_2v (mm2)  point group:

     e(  1 -  1) =    -18.64072  eV     1   --> A_1  D_1  S_1  
     e(  2 -  2) =     -6.72574  eV     1   --> B_2  D_4  S_4  
     e(  3 -  3) =     -2.20825  eV     1   --> A_1  D_1  S_1  
     e(  4 -  4) =     -2.17934  eV     1   --> B_1  D_3  S_3  
     e(  5 -  5) =      3.48980  eV     1   --> A_1  D_1  S_1  
     e(  6 -  6) =      6.99390  eV     1   --> B_2  D_4  S_4  
     e(  7 -  7) =      9.07357  eV     1   --> A_1  D_1  S_1  
     e(  8 -  8) =      9.27792  eV     1   --> A_1  D_1  S_1  
     e(  9 -  9) =      9.32437  eV     1   --> B_1  D_3  S_3  
     e( 10 - 10) =     12.32054  eV     1   --> B_2  D_4  S_4  

 **************************************************************************

 **************************************************************************

                    xk=(   0.00000,   0.00000,   0.00000  )

     point group D_6h(6/mmm)
     there are 12 classes
     the character table:

       E     2C6   2C3   C2    3C2'  3C2'' i     2S3   2S6   s_h   3s_d  3s_v 
A_1g   1.00  1.00  1.00  1.00  1.00  1.00  1.00  1.00  1.00  1.00  1.00  1.00
A_2g   1.00  1.00  1.00  1.00 -1.00 -1.00  1.00  1.00  1.00  1.00 -1.00 -1.00
B_1g   1.00 -1.00  1.00 -1.00  1.00 -1.00  1.00 -1.00  1.00 -1.00  1.00 -1.00
B_2g   1.00 -1.00  1.00 -1.00 -1.00  1.00  1.00 -1.00  1.00 -1.00 -1.00  1.00
E_1g   2.00  1.00 -1.00 -2.00  0.00  0.00  2.00  1.00 -1.00 -2.00  0.00  0.00
E_2g   2.00 -1.00 -1.00  2.00  0.00  0.00  2.00 -1.00 -1.00  2.00  0.00  0.00
A_1u   1.00  1.00  1.00  1.00  1.00  1.00 -1.00 -1.00 -1.00 -1.00 -1.00 -1.00
A_2u   1.00  1.00  1.00  1.00 -1.00 -1.00 -1.00 -1.00 -1.00 -1.00  1.00  1.00
B_1u   1.00 -1.00  1.00 -1.00  1.00 -1.00 -1.00  1.00 -1.00  1.00 -1.00  1.00
B_2u   1.00 -1.00  1.00 -1.00 -1.00  1.00 -1.00  1.00 -1.00  1.00  1.00 -1.00
E_1u   2.00  1.00 -1.00 -2.00  0.00  0.00 -2.00 -1.00  1.00  2.00  0.00  0.00
E_2u   2.00 -1.00 -1.00  2.00  0.00  0.00 -2.00  1.00  1.00 -2.00  0.00  0.00

     the symmetry operations in each class and the name of the first element:

     E        1
                                                                 
     2C6      5    6
                                                                 
     2C3      7    8
                                                                 
     C2       2
                                                                 
     3C2'     4   12   11
                                                                 
     3C2''    3    9   10
                                                                 
     i       13
                                                                 
     2S3     17   18
                                                                 
     2S6     19   20
                                                                 
     s_h     14
                                                                 
     3s_d    16   24   23
                                                                 
     3s_v    15   21   22
                                                                 

     Band symmetry, D_6h(6/mmm) point group:

     e(  1 -  1) =    -18.65552  eV     1   --> A_1g           
     e(  2 -  2) =     -6.74347  eV     1   --> A_2u           
     e(  3 -  4) =     -2.14670  eV     2   --> E_2g           
     e(  5 -  5) =      3.46960  eV     1   --> A_1g           
     e(  6 -  6) =      6.97457  eV     1   --> A_2u           
     e(  7 -  7) =      9.06317  eV     1   --> A_1g           
     e(  8 -  9) =      9.25941  eV     2   --> E_1u           
     e( 10 - 10) =     12.37278  eV     1   --> B_1g           

 **************************************************************************

 **************************************************************************

                    xk=(   0.03333,   0.00000,   0.00000  )

     point group C_2v (mm2) 
     there are  4 classes
     the character table:

       E     C2    s_v   s_v' 
A_1    1.00  1.00  1.00  1.00
A_2    1.00  1.00 -1.00 -1.00
B_1    1.00 -1.00  1.00 -1.00
B_2    1.00 -1.00 -1.00  1.00

     the symmetry operations in each class and the name of the first element:

     E        1
                                                                 
     C2       2
                                                                 
     s_v      4
                                                                 
     s_v'     3
                                                                 

     Band symmetry, C_2v (mm2)  point group:

     e(  1 -  1) =    -18.63578  eV     1   --> A_1  D_1  S_1  
     e(  2 -  2) =     -6.71983  eV     1   --> B_1  D_3  S_3  
     e(  3 -  3) =     -2.22836  eV     1   --> B_2  D_4  S_4  
     e(  4 -  4) =     -2.19038  eV     1   --> A_1  D_1  S_1  
     e(  5 -  5) =      3.49654  eV     1   --> A_1  D_1  S_1  
     e(  6 -  6) =      7.00034  eV     1   --> B_1  D_3  S_3  
     e(  7 -  7) =      9.07710  eV     1   --> A_1  D_1  S_1  
     e(  8 -  8) =      9.28462  eV     1   --> A_1  D_1  S_1  
     e(  9 -  9) =      9.34520  eV     1   --> B_2  D_4  S_4  
     e( 10 - 10) =     12.30320  eV     1   --> A_2  D_2  S_2  

 **************************************************************************

 **************************************************************************

                    xk=(   0.06667,   0.00000,   0.00000  )

     Band symmetry, C_2v (mm2)  point group:

     e(  1 -  1) =    -18.57660  eV     1   --> A_1  D_1  S_1  
     e(  2 -  2) =     -6.64900  eV     1   --> B_1  D_3  S_3  
     e(  3 -  3) =     -2.46423  eV     1   --> B_2  D_4  S_4  
     e(  4 -  4) =     -2.31993  eV     1   --> A_1  D_1  S_1  
     e(  5 -  5) =      3.57737  eV     1   --> A_1  D_1  S_1  
     e(  6 -  6) =      7.07760  eV     1   --> B_1  D_3  S_3  
     e(  7 -  7) =      9.12034  eV     1   --> A_1  D_1  S_1  
     e(  8 -  8) =      9.35977  eV     1   --> A_1  D_1  S_1  
     e(  9 -  9) =      9.58909  eV     1   --> B_2  D_4  S_4  
     e( 10 - 10) =     12.09772  eV     1   --> A_2  D_2  S_2  

 **************************************************************************

 **************************************************************************

                    xk=(   0.10000,   0.00000,   0.00000  )

     Band symmetry, C_2v (mm2)  point group:

     e(  1 -  1) =    -18.47808  eV     1   --> A_1  D_1  S_1  
     e(  2 -  2) =     -6.53119  eV     1   --> B_1  D_3  S_3  
     e(  3 -  3) =     -2.83057  eV     1   --> B_2  D_4  S_4  
     e(  4 -  4) =     -2.53089  eV     1   --> A_1  D_1  S_1  
     e(  5 -  5) =      3.71211  eV     1   --> A_1  D_1  S_1  
     e(  6 -  6) =      7.20615  eV     1   --> B_1  D_3  S_3  
     e(  7 -  7) =      9.19633  eV     1   --> A_1  D_1  S_1  
     e(  8 -  8) =      9.48411  eV     1   --> A_1  D_1  S_1  
     e(  9 -  9) =      9.95456  eV     1   --> B_2  D_4  S_4  
     e( 10 - 10) =     11.76578  eV     1   --> A_2  D_2  S_2  

 **************************************************************************

 **************************************************************************

                    xk=(   0.13333,   0.00000,   0.00000  )

     Band symmetry, C_2v (mm2)  point group:

     e(  1 -  1) =    -18.34034  eV     1   --> A_1  D_1  S_1  
     e(  2 -  2) =     -6.36676  eV     1   --> B_1  D_3  S_3  
     e(  3 -  3) =     -3.29722  eV     1   --> B_2  D_4  S_4  
     e(  4 -  4) =     -2.81625  eV     1   --> A_1  D_1  S_1  
     e(  5 -  5) =      3.90078  eV     1   --> A_1  D_1  S_1  
     e(  6 -  6) =      7.38563  eV     1   --> B_1  D_3  S_3  
     e(  7 -  7) =      9.30894  eV     1   --> A_1  D_1  S_1  
     e(  8 -  8) =      9.65721  eV     1   --> A_1  D_1  S_1  
     e(  9 -  9) =     10.39051  eV     1   --> B_2  D_4  S_4  
     e( 10 - 10) =     11.32164  eV     1   --> A_2  D_2  S_2  

 **************************************************************************

 **************************************************************************

                    xk=(   0.16667,   0.00000,   0.00000  )

     Band symmetry, C_2v (mm2)  point group:

     e(  1 -  1) =    -18.16351  eV     1   --> A_1  D_1  S_1  
     e(  2 -  2) =     -6.15623  eV     1   --> B_1  D_3  S_3  
     e(  3 -  3) =     -3.83472  eV     1   --> B_2  D_4  S_4  
     e(  4 -  4) =     -3.16702  eV     1   --> A_1  D_1  S_1  
     e(  5 -  5) =      4.14338  eV     1   --> A_1  D_1  S_1  
     e(  6 -  6) =      7.61549  eV     1   --> B_1  D_3  S_3  
     e(  7 -  7) =      9.46169  eV     1   --> A_1  D_1  S_1  
     e(  8 -  8) =      9.87926  eV     1   --> A_1  D_1  S_1  
     e(  9 -  9) =     10.78291  eV     1   --> A_2  D_2  S_2  
     e( 10 - 10) =     10.84255  eV     1   --> B_2  D_4  S_4  

 **************************************************************************

 **************************************************************************

                    xk=(   0.20000,   0.00000,   0.00000  )

     Band symmetry, C_2v (mm2)  point group:

     e(  1 -  1) =    -17.94789  eV     1   --> A_1  D_1  S_1  
     e(  2 -  2) =     -5.90034  eV     1   --> B_1  D_3  S_3  
     e(  3 -  3) =     -4.41805  eV     1   --> B_2  D_4  S_4  
     e(  4 -  4) =     -3.57295  eV     1   --> A_1  D_1  S_1  
     e(  5 -  5) =      4.43986  eV     1   --> A_1  D_1  S_1  
     e(  6 -  6) =      7.89492  eV     1   --> B_1  D_3  S_3  
     e(  7 -  7) =      9.65705  eV     1   --> A_1  D_1  S_1  
     e(  8 -  8) =     10.15049  eV     1   --> A_1  D_1  S_1  
     e(  9 -  9) =     10.16855  eV     1   --> A_2  D_2  S_2  
     e( 10 - 10) =     11.26648  eV     1   --> B_2  D_4  S_4  

 **************************************************************************

 **************************************************************************

                    xk=(   0.23333,   0.00000,   0.00000  )

     Band symmetry, C_2v (mm2)  point group:

     e(  1 -  1) =    -17.69379  eV     1   --> A_1  D_1  S_1  
     e(  2 -  2) =     -5.60003  eV     1   --> B_1  D_3  S_3  
     e(  3 -  3) =     -5.02750  eV     1   --> B_2  D_4  S_4  
     e(  4 -  4) =     -4.02327  eV     1   --> A_1  D_1  S_1  
     e(  5 -  5) =      4.79016  eV     1   --> A_1  D_1  S_1  
     e(  6 -  6) =      8.22272  eV     1   --> B_1  D_3  S_3  
     e(  7 -  7) =      9.49727  eV     1   --> A_2  D_2  S_2  
     e(  8 -  8) =      9.89632  eV     1   --> A_1  D_1  S_1  
     e(  9 -  9) =     10.47120  eV     1   --> A_1  D_1  S_1  
     e( 10 - 10) =     11.63980  eV     1   --> B_2  D_4  S_4  

 **************************************************************************

 **************************************************************************

                    xk=(   0.26667,   0.00000,   0.00000  )

     Band symmetry, C_2v (mm2)  point group:

     e(  1 -  1) =    -17.40166  eV     1   --> A_1  D_1  S_1  
     e(  2 -  2) =     -5.64810  eV     1   --> B_2  D_4  S_4  
     e(  3 -  3) =     -5.25654  eV     1   --> B_1  D_3  S_3  
     e(  4 -  4) =     -4.50723  eV     1   --> A_1  D_1  S_1  
     e(  5 -  5) =      5.19416  eV     1   --> A_1  D_1  S_1  
     e(  6 -  6) =      8.59709  eV     1   --> B_1  D_3  S_3  
     e(  7 -  7) =      8.78645  eV     1   --> A_2  D_2  S_2  
     e(  8 -  8) =     10.17962  eV     1   --> A_1  D_1  S_1  
     e(  9 -  9) =     10.84162  eV     1   --> A_1  D_1  S_1  
     e( 10 - 10) =     11.96189  eV     1   --> B_2  D_4  S_4  

 **************************************************************************

 **************************************************************************

                    xk=(   0.30000,   0.00000,   0.00000  )

     Band symmetry, C_2v (mm2)  point group:

     e(  1 -  1) =    -17.07198  eV     1   --> A_1  D_1  S_1  
     e(  2 -  2) =     -6.26872  eV     1   --> B_2  D_4  S_4  
     e(  3 -  3) =     -5.01467  eV     1   --> A_1  D_1  S_1  
     e(  4 -  4) =     -4.87139  eV     1   --> B_1  D_3  S_3  
     e(  5 -  5) =      5.65172  eV     1   --> A_1  D_1  S_1  
     e(  6 -  6) =      8.05144  eV     1   --> A_2  D_2  S_2  
     e(  7 -  7) =      9.01530  eV     1   --> B_1  D_3  S_3  
     e(  8 -  8) =     10.50573  eV     1   --> A_1  D_1  S_1  
     e(  9 -  9) =     11.26171  eV     1   --> A_1  D_1  S_1  
     e( 10 - 10) =     12.24371  eV     1   --> B_2  D_4  S_4  

 **************************************************************************

 **************************************************************************

                    xk=(   0.33333,   0.00000,   0.00000  )

     Band symmetry, C_2v (mm2)  point group:

     e(  1 -  1) =    -16.70548  eV     1   --> A_1  D_1  S_1  
     e(  2 -  2) =     -6.88105  eV     1   --> B_2  D_4  S_4  
     e(  3 -  3) =     -5.53616  eV     1   --> A_1  D_1  S_1  
     e(  4 -  4) =     -4.44659  eV     1   --> B_1  D_3  S_3  
     e(  5 -  5) =      6.16259  eV     1   --> A_1  D_1  S_1  
     e(  6 -  6) =      7.30539  eV     1   --> A_2  D_2  S_2  
     e(  7 -  7) =      9.47303  eV     1   --> B_1  D_3  S_3  
     e(  8 -  8) =     10.87246  eV     1   --> A_1  D_1  S_1  
     e(  9 -  9) =     11.73116  eV     1   --> A_1  D_1  S_1  
     e( 10 - 10) =     12.49812  eV     1   --> B_2  D_4  S_4  

 **************************************************************************

 **************************************************************************

                    xk=(   0.36667,   0.00000,   0.00000  )

     Band symmetry, C_2v (mm2)  point group:

     e(  1 -  1) =    -16.30307  eV     1   --> A_1  D_1  S_1  
     e(  2 -  2) =     -7.47891  eV     1   --> B_2  D_4  S_4  
     e(  3 -  3) =     -6.06323  eV     1   --> A_1  D_1  S_1  
     e(  4 -  4) =     -3.98465  eV     1   --> B_1  D_3  S_3  
     e(  5 -  5) =      6.55928  eV     1   --> A_2  D_2  S_2  
     e(  6 -  6) =      6.72644  eV     1   --> A_1  D_1  S_1  
     e(  7 -  7) =      9.96304  eV     1   --> B_1  D_3  S_3  
     e(  8 -  8) =     11.27628  eV     1   --> A_1  D_1  S_1  
     e(  9 -  9) =     12.24910  eV     1   --> A_1  D_1  S_1  
     e( 10 - 10) =     12.73502  eV     1   --> B_2  D_4  S_4  

 **************************************************************************

 **************************************************************************

                    xk=(   0.40000,   0.00000,   0.00000  )

     Band symmetry, C_2v (mm2)  point group:

     e(  1 -  1) =    -15.86581  eV     1   --> A_1  D_1  S_1  
     e(  2 -  2) =     -8.05769  eV     1   --> B_2  D_4  S_4  
     e(  3 -  3) =     -6.58825  eV     1   --> A_1  D_1  S_1  
     e(  4 -  4) =     -3.48874  eV     1   --> B_1  D_3  S_3  
     e(  5 -  5) =      5.82217  eV     1   --> A_2  D_2  S_2  
     e(  6 -  6) =      7.34281  eV     1   --> A_1  D_1  S_1  
     e(  7 -  7) =     10.47259  eV     1   --> B_1  D_3  S_3  
     e(  8 -  8) =     11.71236  eV     1   --> A_1  D_1  S_1  
     e(  9 -  9) =     12.81393  eV     1   --> A_1  D_1  S_1  
     e( 10 - 10) =     12.96059  eV     1   --> B_2  D_4  S_4  

 **************************************************************************

 **************************************************************************

                    xk=(   0.43333,   0.00000,   0.00000  )

     Band symmetry, C_2v (mm2)  point group:

     e(  1 -  1) =    -15.39531  eV     1   --> A_1  D_1  S_1  
     e(  2 -  2) =     -8.61395  eV     1   --> B_2  D_4  S_4  
     e(  3 -  3) =     -7.10437  eV     1   --> A_1  D_1  S_1  
     e(  4 -  4) =     -2.96293  eV     1   --> B_1  D_3  S_3  
     e(  5 -  5) =      5.10148  eV     1   --> A_2  D_2  S_2  
     e(  6 -  6) =      8.01099  eV     1   --> A_1  D_1  S_1  
     e(  7 -  7) =     10.97787  eV     1   --> B_1  D_3  S_3  
     e(  8 -  8) =     12.17342  eV     1   --> A_1  D_1  S_1  
     e(  9 -  9) =     13.17710  eV     1   --> B_2  D_4  S_4  
     e( 10 - 10) =     13.42265  eV     1   --> A_1  D_1  S_1  

 **************************************************************************

 **************************************************************************

                    xk=(   0.46667,   0.00000,   0.00000  )

     Band symmetry, C_2v (mm2)  point group:

     e(  1 -  1) =    -14.89372  eV     1   --> A_1  D_1  S_1  
     e(  2 -  2) =     -9.14495  eV     1   --> B_2  D_4  S_4  
     e(  3 -  3) =     -7.60518  eV     1   --> A_1  D_1  S_1  
     e(  4 -  4) =     -2.41241  eV     1   --> B_1  D_3  S_3  
     e(  5 -  5) =      4.40327  eV     1   --> A_2  D_2  S_2  
     e(  6 -  6) =      8.72988  eV     1   --> A_1  D_1  S_1  
     e(  7 -  7) =     11.43362  eV     1   --> B_1  D_3  S_3  
     e(  8 -  8) =     12.64878  eV     1   --> A_1  D_1  S_1  
     e(  9 -  9) =     13.38316  eV     1   --> B_2  D_4  S_4  
     e( 10 - 10) =     14.06993  eV     1   --> A_1  D_1  S_1  

 **************************************************************************

 **************************************************************************

                    xk=(   0.50000,   0.00000,   0.00000  )

     Band symmetry, C_2v (mm2)  point group:

     e(  1 -  1) =    -14.36412  eV     1   --> A_1  D_1  S_1  
     e(  2 -  2) =     -9.64880  eV     1   --> B_2  D_4  S_4  
     e(  3 -  3) =     -8.08439  eV     1   --> A_1  D_1  S_1  
     e(  4 -  4) =     -1.84375  eV     1   --> B_1  D_3  S_3  
     e(  5 -  5) =      3.73243  eV     1   --> A_2  D_2  S_2  
     e(  6 -  6) =      9.49765  eV     1   --> A_1  D_1  S_1  
     e(  7 -  7) =     11.76388  eV     1   --> B_1  D_3  S_3  
     e(  8 -  8) =     13.12103  eV     1   --> A_1  D_1  S_1  
     e(  9 -  9) =     13.57250  eV     1   --> B_2  D_4  S_4  
     e( 10 - 10) =     14.74543  eV     1   --> A_1  D_1  S_1  

 **************************************************************************

 **************************************************************************

                    xk=(   0.53333,   0.00000,   0.00000  )

     Band symmetry, C_2v (mm2)  point group:

     e(  1 -  1) =    -13.81132  eV     1   --> A_1  D_1  S_1  
     e(  2 -  2) =    -10.12390  eV     1   --> B_2  D_4  S_4  
     e(  3 -  3) =     -8.53497  eV     1   --> A_1  D_1  S_1  
     e(  4 -  4) =     -1.26530  eV     1   --> B_1  D_3  S_3  
     e(  5 -  5) =      3.09297  eV     1   --> A_2  D_2  S_2  
     e(  6 -  6) =     10.31100  eV     1   --> A_1  D_1  S_1  
     e(  7 -  7) =     11.89552  eV     1   --> B_1  D_3  S_3  
     e(  8 -  8) =     13.56061  eV     1   --> A_1  D_1  S_1  
     e(  9 -  9) =     13.73197  eV     1   --> B_2  D_4  S_4  
     e( 10 - 10) =     15.20665  eV     1   --> B_1  D_3  S_3  

 **************************************************************************

 **************************************************************************

                    xk=(   0.56667,   0.00000,   0.00000  )

     Band symmetry, C_2v (mm2)  point group:

     e(  1 -  1) =    -13.24354  eV     1   --> A_1  D_1  S_1  
     e(  2 -  2) =    -10.56906  eV     1   --> B_2  D_4  S_4  
     e(  3 -  3) =     -8.94753  eV     1   --> A_1  D_1  S_1  
     e(  4 -  4) =     -0.68749  eV     1   --> B_1  D_3  S_3  
     e(  5 -  5) =      2.48816  eV     1   --> A_2  D_2  S_2  
     e(  6 -  6) =     11.16334  eV     1   --> A_1  D_1  S_1  
     e(  7 -  7) =     11.84743  eV     1   --> B_1  D_3  S_3  
     e(  8 -  8) =     13.83760  eV     1   --> B_2  D_4  S_4  
     e(  9 -  9) =     13.91535  eV     1   --> A_1  D_1  S_1  
     e( 10 - 10) =     15.59458  eV     1   --> B_1  D_3  S_3  

 **************************************************************************

 **************************************************************************

                    xk=(   0.60000,   0.00000,   0.00000  )

     Band symmetry, C_2v (mm2)  point group:

     e(  1 -  1) =    -12.67631  eV     1   --> A_1  D_1  S_1  
     e(  2 -  2) =    -10.98337  eV     1   --> B_2  D_4  S_4  
     e(  3 -  3) =     -9.30635  eV     1   --> A_1  D_1  S_1  
     e(  4 -  4) =     -0.12300  eV     1   --> B_1  D_3  S_3  
     e(  5 -  5) =      1.92066  eV     1   --> A_2  D_2  S_2  
     e(  6 -  6) =     11.72054  eV     1   --> B_1  D_3  S_3  
     e(  7 -  7) =     12.03941  eV     1   --> A_1  D_1  S_1  
     e(  8 -  8) =     13.85341  eV     1   --> B_2  D_4  S_4  
     e(  9 -  9) =     14.10447  eV     1   --> A_1  D_1  S_1  
     e( 10 - 10) =     16.17035  eV     1   --> B_1  D_3  S_3  

 **************************************************************************

 **************************************************************************

                    xk=(   0.63333,   0.00000,   0.00000  )

     Band symmetry, C_2v (mm2)  point group:

     e(  1 -  1) =    -12.14294  eV     1   --> A_1  D_1  S_1  
     e(  2 -  2) =    -11.36615  eV     1   --> B_2  D_4  S_4  
     e(  3 -  3) =     -9.57914  eV     1   --> A_1  D_1  S_1  
     e(  4 -  4) =      0.41341  eV     1   --> B_1  D_3  S_3  
     e(  5 -  5) =      1.39267  eV     1   --> A_2  D_2  S_2  
     e(  6 -  6) =     11.60626  eV     1   --> B_1  D_3  S_3  
     e(  7 -  7) =     12.89469  eV     1   --> A_1  D_1  S_1  
     e(  8 -  8) =     13.74663  eV     1   --> B_2  D_4  S_4  
     e(  9 -  9) =     14.06932  eV     1   --> A_1  D_1  S_1  
     e( 10 - 10) =     16.20578  eV     1   --> A_1  D_1  S_1  

 **************************************************************************

 **************************************************************************

                    xk=(   0.66667,   0.00000,   0.00000  )

     zone border point and non-symmorphic group 
     symmetry decomposition not available

 **************************************************************************

 **************************************************************************

                    xk=(   0.65000,   0.02887,   0.00000  )

     zone border point and non-symmorphic group 
     symmetry decomposition not available

 **************************************************************************

 **************************************************************************

                    xk=(   0.63333,   0.05774,   0.00000  )

     zone border point and non-symmorphic group 
     symmetry decomposition not available

 **************************************************************************

 **************************************************************************

                    xk=(   0.61667,   0.08660,   0.00000  )

     zone border point and non-symmorphic group 
     symmetry decomposition not available

 **************************************************************************

 **************************************************************************

                    xk=(   0.60000,   0.11547,   0.00000  )

     zone border point and non-symmorphic group 
     symmetry decomposition not available

 **************************************************************************

 **************************************************************************

                    xk=(   0.58333,   0.14434,   0.00000  )

     zone border point and non-symmorphic group 
     symmetry decomposition not available

 **************************************************************************

 **************************************************************************

                    xk=(   0.56667,   0.17321,   0.00000  )

     zone border point and non-symmorphic group 
     symmetry decomposition not available

 **************************************************************************

 **************************************************************************

                    xk=(   0.55000,   0.20207,   0.00000  )

     zone border point and non-symmorphic group 
     symmetry decomposition not available

 **************************************************************************

 **************************************************************************

                    xk=(   0.53333,   0.23094,   0.00000  )

     zone border point and non-symmorphic group 
     symmetry decomposition not available

 **************************************************************************

 **************************************************************************

                    xk=(   0.51667,   0.25981,   0.00000  )

     zone border point and non-symmorphic group 
     symmetry decomposition not available

 **************************************************************************

 **************************************************************************

                    xk=(   0.50000,   0.28868,   0.00000  )

     zone border point and non-symmorphic group 
     symmetry decomposition not available

 **************************************************************************

     BANDS        :      1.14s CPU      1.42s WALL


   This run was terminated on:  14:18: 9  18Jul2025            

=------------------------------------------------------------------------------=
   JOB DONE.
=------------------------------------------------------------------------------=
