
     Program PWSCF v.7.4.1 starts on  3Jul2025 at  8:35:13 

     This program is part of the open-source Quantum ESPRESSO suite
     for quantum simulation of materials; please cite
         "P. Giannozzi et al., J. Phys.:Condens. Matter 21 395502 (2009);
         "P. Giannozzi et al., J. Phys.:Condens. Matter 29 465901 (2017);
         "P. Giannozzi et al., J. Chem. Phys. 152 154105 (2020);
          URL http://www.quantum-espresso.org", 
     in publications or presentations arising from this work. More details at
     http://www.quantum-espresso.org/quote

     Parallel version (MPI), running on     4 processors

     MPI processes distributed on     1 nodes
     320 MiB available memory on the printing compute node when the environment starts

     Waiting for input...
     Reading input from standard input

     Current dimensions of program PWSCF are:
     Max number of different atomic species (ntypx) = 10
     Max number of k-points (npk) =  40000
     Max angular momentum in pseudopotentials (lmaxx) =  4

     Atomic positions and unit cell read from directory:
     ./tmp/Si.save/


     R & G space division:  proc/nbgrp/npool/nimage =       4
     Subspace diagonalization in iterative solution of the eigenvalue problem:
     a serial algorithm will be used


     Parallelization info
     --------------------
     sticks:   dense  smooth     PW     G-vecs:    dense   smooth      PW
     Min         163     163     52                 2778     2778     497
     Max         166     166     54                 2779     2779     498
     Sum         661     661    211                11113    11113    1989

     Using Slab Decomposition



     bravais-lattice index     =            2
     lattice parameter (alat)  =      10.4109  a.u.
     unit-cell volume          =     282.1019 (a.u.)^3
     number of atoms/cell      =            2
     number of atomic types    =            1
     number of electrons       =         8.00
     number of Kohn-Sham states=            8
     kinetic-energy cutoff     =      44.0000  Ry
     charge density cutoff     =     176.0000  Ry
     Exchange-correlation= PBE
                           (   1   4   3   4   0   0   0)

     celldm(1)=  10.410909  celldm(2)=   0.000000  celldm(3)=   0.000000
     celldm(4)=   0.000000  celldm(5)=   0.000000  celldm(6)=   0.000000

     crystal axes: (cart. coord. in units of alat)
               a(1) = (  -0.500000   0.000000   0.500000 )  
               a(2) = (   0.000000   0.500000   0.500000 )  
               a(3) = (  -0.500000   0.500000   0.000000 )  

     reciprocal axes: (cart. coord. in units 2 pi/alat)
               b(1) = ( -1.000000 -1.000000  1.000000 )  
               b(2) = (  1.000000  1.000000  1.000000 )  
               b(3) = ( -1.000000  1.000000 -1.000000 )  


     PseudoPot. # 1 for Si read from file:
     ./pseudo/Si.pbe-n-rrkjus_psl.1.0.0.UPF
     MD5 check sum: 0b0bb1205258b0d07b9f9672cf965d36
     Pseudo is Ultrasoft + core correction, Zval =  4.0
     Generated using "atomic" code by A. Dal Corso  v.5.1
     Using radial grid of 1141 points,  6 beta functions with: 
                l(1) =   0
                l(2) =   0
                l(3) =   1
                l(4) =   1
                l(5) =   2
                l(6) =   2
     Q(r) pseudized with 0 coefficients 


     atomic species   valence    mass     pseudopotential
     Si                4.00    28.08550     Si( 1.00)

     48 Sym. Ops., with inversion, found (24 have fractional translation)



   Cartesian axes

     site n.     atom                  positions (alat units)
         1        Si     tau(   1) = (   0.0000000   0.0000000   0.0000000  )
         2        Si     tau(   2) = (   0.2500000   0.2500000   0.2500000  )

     number of k points=   195 (tetrahedron method)

     Number of k-points >= 100: set verbosity='high' to print them.

     Dense  grid:    11113 G-vectors     FFT dimensions: (  32,  32,  32)

     Estimated max dynamical RAM per process >      10.21 MB

     Estimated total dynamical RAM >      40.82 MB

     Check: negative core charge=   -0.000001

     The potential is recalculated from file :
     ./tmp/Si.save/charge-density

     Starting wfcs are    8 randomized atomic wfcs

     Band Structure Calculation
     Davidson diagonalization with overlap

     ethr =  1.25E-10,  avg # of iterations = 34.0

     total cpu time spent up to now is       17.9 secs

     End of band structure calculation

     Number of k-points >= 100: set verbosity='high' to print the bands.

     the Fermi energy is     6.1321 ev
     (compare with:     5.7611 eV, computed in scf)

     Writing all to output data dir ./tmp/Si.save/ :
     XML data file, pseudopotentials, collected wavefunctions

     init_run     :      0.18s CPU      0.19s WALL (       1 calls)
     electrons    :     15.34s CPU     16.75s WALL (       1 calls)

     Called by init_run:
     wfcinit      :      0.00s CPU      0.00s WALL (       1 calls)
     potinit      :      0.01s CPU      0.01s WALL (       1 calls)
     hinit0       :      0.15s CPU      0.15s WALL (       1 calls)

     Called by electrons:
     c_bands      :     15.28s CPU     16.69s WALL (       1 calls)
     v_of_rho     :      0.01s CPU      0.01s WALL (       1 calls)
     newd         :      0.01s CPU      0.02s WALL (       1 calls)

     Called by c_bands:
     init_us_2    :      0.02s CPU      0.03s WALL (     195 calls)
     cegterg      :     14.61s CPU     16.00s WALL (     425 calls)

     Called by *egterg:
     cdiaghg      :      0.75s CPU      1.74s WALL (    6833 calls)
     h_psi        :      9.26s CPU      9.55s WALL (    7258 calls)
     s_psi        :      0.99s CPU      1.02s WALL (    7258 calls)
     g_psi        :      0.11s CPU      0.11s WALL (    6638 calls)

     Called by h_psi:
     h_psi:calbec :      1.46s CPU      1.51s WALL (    7258 calls)
     vloc_psi     :      6.74s CPU      6.95s WALL (    7258 calls)
     add_vuspsi   :      1.00s CPU      1.03s WALL (    7258 calls)

     General routines
     calbec       :      1.45s CPU      1.50s WALL (    7258 calls)
     fft          :      0.09s CPU      0.09s WALL (      12 calls)
     fftw         :      5.94s CPU      6.12s WALL (   78218 calls)
     davcio       :      0.03s CPU      0.03s WALL (     390 calls)

     Parallel routines

     PWSCF        :     16.66s CPU     18.19s WALL


   This run was terminated on:   8:35:32   3Jul2025            

=------------------------------------------------------------------------------=
   JOB DONE.
=------------------------------------------------------------------------------=
