
     Program PWSCF v.7.4.1 starts on 18Jul2025 at 14:17:34 

     This program is part of the open-source Quantum ESPRESSO suite
     for quantum simulation of materials; please cite
         "P. Giannozzi et al., J. Phys.:Condens. Matter 21 395502 (2009);
         "P. Giannozzi et al., J. Phys.:Condens. Matter 29 465901 (2017);
         "P. Giannozzi et al., J. Chem. Phys. 152 154105 (2020);
          URL http://www.quantum-espresso.org", 
     in publications or presentations arising from this work. More details at
     http://www.quantum-espresso.org/quote

     Parallel version (MPI), running on     4 processors

     MPI processes distributed on     1 nodes
     154 MiB available memory on the printing compute node when the environment starts

     Waiting for input...
     Reading input from standard input

     Current dimensions of program PWSCF are:
     Max number of different atomic species (ntypx) = 10
     Max number of k-points (npk) =  40000
     Max angular momentum in pseudopotentials (lmaxx) =  4
     file C.pbe-n-kjpaw_psl.1.0.0.UPF: wavefunction(s)  2S 2P renormalized

     Atomic positions and unit cell read from directory:
     ./tmp/graphene.save/


     R & G space division:  proc/nbgrp/npool/nimage =       4
     Subspace diagonalization in iterative solution of the eigenvalue problem:
     a serial algorithm will be used


     Parallelization info
     --------------------
     sticks:   dense  smooth     PW     G-vecs:    dense   smooth      PW
     Min          75      75     22                 3131     3131     557
     Max          76      76     23                 3134     3134     561
     Sum         301     301     91                12531    12531    2237

     Using Slab Decomposition



     bravais-lattice index     =            4
     lattice parameter (alat)  =       4.6540  a.u.
     unit-cell volume          =     261.8973 (a.u.)^3
     number of atoms/cell      =            2
     number of atomic types    =            1
     number of electrons       =         8.00
     number of Kohn-Sham states=           10
     kinetic-energy cutoff     =      50.0000  Ry
     charge density cutoff     =     200.0000  Ry
     Exchange-correlation= SLA  PW   PBX  PBC
                           (   1   4   3   4   0   0   0)

     celldm(1)=   4.654000  celldm(2)=   0.000000  celldm(3)=   3.000000
     celldm(4)=   0.000000  celldm(5)=   0.000000  celldm(6)=   0.000000

     crystal axes: (cart. coord. in units of alat)
               a(1) = (   1.000000   0.000000   0.000000 )  
               a(2) = (  -0.500000   0.866025   0.000000 )  
               a(3) = (   0.000000   0.000000   3.000000 )  

     reciprocal axes: (cart. coord. in units 2 pi/alat)
               b(1) = (  1.000000  0.577350 -0.000000 )  
               b(2) = (  0.000000  1.154701  0.000000 )  
               b(3) = (  0.000000 -0.000000  0.333333 )  


     PseudoPot. # 1 for C  read from file:
     ./C.pbe-n-kjpaw_psl.1.0.0.UPF
     MD5 check sum: 5f16ad9a65e90284d1d834d4ab3b0f7d
     Pseudo is Projector augmented-wave + core cor, Zval =  4.0
     Generated using &quot;atomic&quot; code by A. Dal Corso  v.6.3
     Shape of augmentation charge: PSQ
     Using radial grid of 1073 points,  4 beta functions with: 
                l(1) =   0
                l(2) =   0
                l(3) =   1
                l(4) =   1
     Q(r) pseudized with 0 coefficients 


     atomic species   valence    mass     pseudopotential
     C                 4.00    12.01070     C ( 1.00)

     24 Sym. Ops., with inversion, found (12 have fractional translation)



   Cartesian axes

     site n.     atom                  positions (alat units)
         1        C      tau(   1) = (   0.0000000   0.0000000   0.0000000  )
         2        C      tau(   2) = (   0.0000000   0.5773503   0.0000000  )

     number of k points=    51  Gaussian smearing, width (Ry)=  0.0100
                       cart. coord. in units 2pi/alat
        k(    1) = (   0.5000000   0.2886751   0.0000000), wk =   0.0392157
        k(    2) = (   0.4750000   0.2742414   0.0000000), wk =   0.0392157
        k(    3) = (   0.4500000   0.2598076   0.0000000), wk =   0.0392157
        k(    4) = (   0.4250000   0.2453739   0.0000000), wk =   0.0392157
        k(    5) = (   0.4000000   0.2309401   0.0000000), wk =   0.0392157
        k(    6) = (   0.3750000   0.2165064   0.0000000), wk =   0.0392157
        k(    7) = (   0.3500000   0.2020726   0.0000000), wk =   0.0392157
        k(    8) = (   0.3250000   0.1876388   0.0000000), wk =   0.0392157
        k(    9) = (   0.3000000   0.1732051   0.0000000), wk =   0.0392157
        k(   10) = (   0.2750000   0.1587713   0.0000000), wk =   0.0392157
        k(   11) = (   0.2500000   0.1443376   0.0000000), wk =   0.0392157
        k(   12) = (   0.2250000   0.1299038   0.0000000), wk =   0.0392157
        k(   13) = (   0.2000000   0.1154701   0.0000000), wk =   0.0392157
        k(   14) = (   0.1750000   0.1010363   0.0000000), wk =   0.0392157
        k(   15) = (   0.1500000   0.0866025   0.0000000), wk =   0.0392157
        k(   16) = (   0.1250000   0.0721688   0.0000000), wk =   0.0392157
        k(   17) = (   0.1000000   0.0577350   0.0000000), wk =   0.0392157
        k(   18) = (   0.0750000   0.0433013   0.0000000), wk =   0.0392157
        k(   19) = (   0.0500000   0.0288675   0.0000000), wk =   0.0392157
        k(   20) = (   0.0250000   0.0144338   0.0000000), wk =   0.0392157
        k(   21) = (   0.0000000   0.0000000   0.0000000), wk =   0.0392157
        k(   22) = (   0.0333333   0.0000000   0.0000000), wk =   0.0392157
        k(   23) = (   0.0666667   0.0000000   0.0000000), wk =   0.0392157
        k(   24) = (   0.1000000   0.0000000   0.0000000), wk =   0.0392157
        k(   25) = (   0.1333333   0.0000000   0.0000000), wk =   0.0392157
        k(   26) = (   0.1666667   0.0000000   0.0000000), wk =   0.0392157
        k(   27) = (   0.2000000   0.0000000   0.0000000), wk =   0.0392157
        k(   28) = (   0.2333333   0.0000000   0.0000000), wk =   0.0392157
        k(   29) = (   0.2666667   0.0000000   0.0000000), wk =   0.0392157
        k(   30) = (   0.3000000   0.0000000   0.0000000), wk =   0.0392157
        k(   31) = (   0.3333333   0.0000000   0.0000000), wk =   0.0392157
        k(   32) = (   0.3666667   0.0000000   0.0000000), wk =   0.0392157
        k(   33) = (   0.4000000   0.0000000   0.0000000), wk =   0.0392157
        k(   34) = (   0.4333333   0.0000000   0.0000000), wk =   0.0392157
        k(   35) = (   0.4666667   0.0000000   0.0000000), wk =   0.0392157
        k(   36) = (   0.5000000   0.0000000   0.0000000), wk =   0.0392157
        k(   37) = (   0.5333333   0.0000000   0.0000000), wk =   0.0392157
        k(   38) = (   0.5666667   0.0000000   0.0000000), wk =   0.0392157
        k(   39) = (   0.6000000   0.0000000   0.0000000), wk =   0.0392157
        k(   40) = (   0.6333333   0.0000000   0.0000000), wk =   0.0392157
        k(   41) = (   0.6666667   0.0000000   0.0000000), wk =   0.0392157
        k(   42) = (   0.6500000   0.0288675   0.0000000), wk =   0.0392157
        k(   43) = (   0.6333333   0.0577350   0.0000000), wk =   0.0392157
        k(   44) = (   0.6166667   0.0866025   0.0000000), wk =   0.0392157
        k(   45) = (   0.6000000   0.1154701   0.0000000), wk =   0.0392157
        k(   46) = (   0.5833333   0.1443376   0.0000000), wk =   0.0392157
        k(   47) = (   0.5666667   0.1732051   0.0000000), wk =   0.0392157
        k(   48) = (   0.5500000   0.2020726   0.0000000), wk =   0.0392157
        k(   49) = (   0.5333333   0.2309401   0.0000000), wk =   0.0392157
        k(   50) = (   0.5166667   0.2598076   0.0000000), wk =   0.0392157
        k(   51) = (   0.5000000   0.2886751   0.0000000), wk =   0.0392157

     Dense  grid:    12531 G-vectors     FFT dimensions: (  24,  24,  64)

     Estimated max dynamical RAM per process >       3.68 MB

     Estimated total dynamical RAM >      14.73 MB

     Check: negative core charge=   -0.000041

     The potential is recalculated from file :
     ./tmp/graphene.save/charge-density


     negative rho (up, down):  2.901E-05 0.000E+00
     Starting wfcs are    8 randomized atomic wfcs +    2 random wfcs
     Checking if some PAW data can be deallocated... 

     Band Structure Calculation
     Davidson diagonalization with overlap
     c_bands:  1 eigenvalues not converged

     ethr =  1.25E-10,  avg # of iterations = 34.6

     total cpu time spent up to now is        5.8 secs

     End of band structure calculation

          k = 0.5000 0.2887 0.0000 (  1560 PWs)   bands (ev):

   -13.3983 -12.3704  -5.5401  -1.4637   2.5877   8.3298  11.4394  11.5395
    13.8699  14.8007

          k = 0.4750 0.2742 0.0000 (  1572 PWs)   bands (ev):

   -13.6278 -12.1189  -5.5254  -1.5594   2.7065   8.3372  10.7209  12.2899
    13.5403  15.1336

          k = 0.4500 0.2598 0.0000 (  1561 PWs)   bands (ev):

   -14.0575 -11.6232  -5.4812  -1.8169   3.0333   8.3588   9.9902  12.9753
    13.1145  15.1601

          k = 0.4250 0.2454 0.0000 (  1565 PWs)   bands (ev):

   -14.5157 -11.0556  -5.4080  -2.1773   3.5079   8.3924   9.2981  12.3861
    13.9523  14.5429

          k = 0.4000 0.2309 0.0000 (  1569 PWs)   bands (ev):

   -14.9660 -10.4535  -5.3062  -2.5899   4.0780   8.4126   8.6707  11.8075
    13.9293  14.8106

          k = 0.3750 0.2165 0.0000 (  1559 PWs)   bands (ev):

   -15.3979  -9.8287  -5.1767  -3.0223   4.7085   7.9905   8.5371  11.2508
    13.3628  15.6095

          k = 0.3500 0.2021 0.0000 (  1577 PWs)   bands (ev):

   -15.8073  -9.1872  -5.0205  -3.4550   5.3764   7.4177   8.6043  10.7216
    12.8253  16.2783

          k = 0.3250 0.1876 0.0000 (  1573 PWs)   bands (ev):

   -16.1921  -8.5334  -4.8393  -3.8762   6.0655   6.8774   8.6879  10.2235
    12.3211  16.6619

          k = 0.3000 0.1732 0.0000 (  1575 PWs)   bands (ev):

   -16.5510  -7.8717  -4.6347  -4.2786   6.3753   6.7628   8.7799   9.7598
    11.8521  16.0571

          k = 0.2750 0.1588 0.0000 (  1573 PWs)   bands (ev):

   -16.8831  -7.2067  -4.6574  -4.4093   5.9124   7.4543   8.8761   9.3353
    11.4195  15.2008

          k = 0.2500 0.1443 0.0000 (  1569 PWs)   bands (ev):

   -17.1879  -6.5438  -5.0092  -4.1660   5.4892   8.1113   8.9706   8.9721
    11.0244  14.3588

          k = 0.2250 0.1299 0.0000 (  1571 PWs)   bands (ev):

   -17.4647  -5.8892  -5.3318  -3.9086   5.1059   8.4307   8.9600   9.0624
    10.6679  13.5433

          k = 0.2000 0.1155 0.0000 (  1573 PWs)   bands (ev):

   -17.7133  -5.6236  -5.2508  -3.6420   4.7628   8.1844   9.1408   9.5226
    10.3510  12.7652

          k = 0.1750 0.1010 0.0000 (  1565 PWs)   bands (ev):

   -17.9332  -5.8832  -4.6373  -3.3720   4.4598   7.9105   9.2000  10.0752
    10.1108  12.0354

          k = 0.1500 0.0866 0.0000 (  1573 PWs)   bands (ev):

   -18.1243  -6.1097  -4.0599  -3.1060   4.1972   7.6655   9.2328   9.8426
    10.6587  11.3649

          k = 0.1250 0.0722 0.0000 (  1555 PWs)   bands (ev):

   -18.2862  -6.3023  -3.5312  -2.8526   3.9749   7.4557   9.2332   9.6551
    10.7652  11.1496

          k = 0.1000 0.0577 0.0000 (  1567 PWs)   bands (ev):

   -18.4190  -6.4606  -3.0659  -2.6221   3.7930   7.2831   9.2020   9.5125
    10.2486  11.5714

          k = 0.0750 0.0433 0.0000 (  1557 PWs)   bands (ev):

   -18.5224  -6.5842  -2.6799  -2.4257   3.6515   7.1483   9.1523   9.4072
     9.8283  11.9133

          k = 0.0500 0.0289 0.0000 (  1545 PWs)   bands (ev):

   -18.5963  -6.6726  -2.3893  -2.2747   3.5504   7.0519   9.1047   9.3294
     9.5165  12.1657

          k = 0.0250 0.0144 0.0000 (  1555 PWs)   bands (ev):

   -18.6407  -6.7257  -2.2082  -2.1793   3.4898   6.9939   9.0736   9.2779
     9.3244  12.3205

          k = 0.0000 0.0000 0.0000 (  1555 PWs)   bands (ev):

   -18.6555  -6.7435  -2.1467  -2.1467   3.4696   6.9746   9.0632   9.2594
     9.2594  12.3728

          k = 0.0333 0.0000 0.0000 (  1551 PWs)   bands (ev):

   -18.6358  -6.7198  -2.2284  -2.1904   3.4965   7.0003   9.0771   9.2846
     9.3452  12.3032

          k = 0.0667 0.0000 0.0000 (  1547 PWs)   bands (ev):

   -18.5766  -6.6490  -2.4642  -2.3199   3.5774   7.0776   9.1203   9.3598
     9.5891  12.0977

          k = 0.1000 0.0000 0.0000 (  1549 PWs)   bands (ev):

   -18.4781  -6.5312  -2.8306  -2.5309   3.7121   7.2061   9.1963   9.4841
     9.9546  11.7658

          k = 0.1333 0.0000 0.0000 (  1569 PWs)   bands (ev):

   -18.3403  -6.3668  -3.2972  -2.8163   3.9008   7.3856   9.3089   9.6572
    10.3905  11.3216

          k = 0.1667 0.0000 0.0000 (  1565 PWs)   bands (ev):

   -18.1635  -6.1562  -3.8347  -3.1670   4.1434   7.6155   9.4617   9.8793
    10.7829  10.8426

          k = 0.2000 0.0000 0.0000 (  1569 PWs)   bands (ev):

   -17.9479  -5.9003  -4.4180  -3.5729   4.4399   7.8949   9.6570  10.1505
    10.1685  11.2665

          k = 0.2333 0.0000 0.0000 (  1571 PWs)   bands (ev):

   -17.6938  -5.6000  -5.0275  -4.0233   4.7902   8.2227   9.4973   9.8963
    10.4712  11.6398

          k = 0.2667 0.0000 0.0000 (  1565 PWs)   bands (ev):

   -17.4017  -5.6481  -5.2565  -4.5072   5.1942   8.5971   8.7865  10.1796
    10.8416  11.9619

          k = 0.3000 0.0000 0.0000 (  1563 PWs)   bands (ev):

   -17.0720  -6.2687  -5.0147  -4.8714   5.6517   8.0514   9.0153  10.5057
    11.2617  12.2437

          k = 0.3333 0.0000 0.0000 (  1553 PWs)   bands (ev):

   -16.7055  -6.8810  -5.5362  -4.4466   6.1626   7.3054   9.4730  10.8725
    11.7312  12.4981

          k = 0.3667 0.0000 0.0000 (  1563 PWs)   bands (ev):

   -16.3031  -7.4789  -6.0632  -3.9846   6.5593   6.7264   9.9630  11.2763
    12.2491  12.7350

          k = 0.4000 0.0000 0.0000 (  1557 PWs)   bands (ev):

   -15.8658  -8.0577  -6.5883  -3.4887   5.8222   7.3428  10.4726  11.7124
    12.8139  12.9606

          k = 0.4333 0.0000 0.0000 (  1565 PWs)   bands (ev):

   -15.3953  -8.6139  -7.1044  -2.9629   5.1015   8.0110  10.9779  12.1734
    13.1771  13.4227

          k = 0.4667 0.0000 0.0000 (  1559 PWs)   bands (ev):

   -14.8937  -9.1450  -7.6052  -2.4124   4.4033   8.7299  11.4336  12.6488
    13.3832  14.0699

          k = 0.5000 0.0000 0.0000 (  1557 PWs)   bands (ev):

   -14.3641  -9.6488  -8.0844  -1.8438   3.7324   9.4977  11.7639  13.1210
    13.5725  14.7454

          k = 0.5333 0.0000 0.0000 (  1555 PWs)   bands (ev):

   -13.8113 -10.1239  -8.5350  -1.2653   3.0930  10.3110  11.8955  13.5606
    13.7320  15.2067

          k = 0.5667 0.0000 0.0000 (  1551 PWs)   bands (ev):

   -13.2435 -10.5691  -8.9475  -0.6875   2.4882  11.1633  11.8474  13.8376
    13.9153  15.5946

          k = 0.6000 0.0000 0.0000 (  1547 PWs)   bands (ev):

   -12.6763 -10.9834  -9.3063  -0.1230   1.9207  11.7205  12.0394  13.8534
    14.1045  16.1704

          k = 0.6333 0.0000 0.0000 (  1563 PWs)   bands (ev):

   -12.1429 -11.3661  -9.5791   0.4134   1.3927  11.6063  12.8947  13.7466
    14.0693  16.2058

          k = 0.6667 0.0000 0.0000 (  1563 PWs)   bands (ev):

   -11.7168 -11.7168  -9.6947   0.9060   0.9060  11.5604  13.5219  13.5219
    13.9359  16.1489

          k = 0.6500 0.0289 0.0000 (  1561 PWs)   bands (ev):

   -12.0349 -11.5067  -9.5481   0.4622   1.3398  11.6130  13.2239  13.3905
    13.9813  16.1823

          k = 0.6333 0.0577 0.0000 (  1551 PWs)   bands (ev):

   -12.3201 -11.5211  -9.1367   0.0623   1.7036  11.7760  12.9008  13.0451
    13.5244  16.2631

          k = 0.6167 0.0866 0.0000 (  1556 PWs)   bands (ev):

   -12.5722 -11.6499  -8.5791  -0.2925   1.9924  12.0436  12.5849  12.6003
    12.8283  16.0859

          k = 0.6000 0.1155 0.0000 (  1558 PWs)   bands (ev):

   -12.7911 -11.8114  -7.9688  -0.6015   2.2087  11.7683  12.2946  12.3922
    12.4482  15.7460

          k = 0.5833 0.1443 0.0000 (  1556 PWs)   bands (ev):

   -12.9764 -11.9694  -7.3580  -0.8639   2.3615  10.8798  12.0399  12.1714
    12.7808  15.4578

          k = 0.5667 0.1732 0.0000 (  1568 PWs)   bands (ev):

   -13.1282 -12.1085  -6.7838  -1.0793   2.4631  10.0548  11.8267  11.9453
    13.1574  15.2216

          k = 0.5500 0.2021 0.0000 (  1562 PWs)   bands (ev):

   -13.2463 -12.2211  -6.2807  -1.2473   2.5267   9.3460  11.6585  11.7684
    13.4729  15.0376

          k = 0.5333 0.2309 0.0000 (  1558 PWs)   bands (ev):

   -13.3307 -12.3035  -5.8842  -1.3675   2.5635   8.7979  11.5371  11.6415
    13.6981  14.9060

          k = 0.5167 0.2598 0.0000 (  1564 PWs)   bands (ev):

   -13.3814 -12.3536  -5.6286  -1.4397   2.5821   8.4495  11.4639  11.5650
    13.8280  14.8271

          k = 0.5000 0.2887 0.0000 (  1560 PWs)   bands (ev):

   -13.3983 -12.3704  -5.5401  -1.4637   2.5877   8.3298  11.4394  11.5395
    13.8699  14.8007

     Writing all to output data dir ./tmp/graphene.save/ :
     XML data file, pseudopotentials, collected wavefunctions

     init_run     :      0.21s CPU      0.24s WALL (       1 calls)
     electrons    :      5.26s CPU      5.42s WALL (       1 calls)

     Called by init_run:
     wfcinit      :      0.00s CPU      0.00s WALL (       1 calls)
     potinit      :      0.04s CPU      0.05s WALL (       1 calls)
     hinit0       :      0.16s CPU      0.17s WALL (       1 calls)

     Called by electrons:
     c_bands      :      5.26s CPU      5.42s WALL (       1 calls)
     v_of_rho     :      0.01s CPU      0.01s WALL (       1 calls)
     newd         :      0.01s CPU      0.01s WALL (       1 calls)
     PAW_pot      :      0.03s CPU      0.04s WALL (       1 calls)

     Called by c_bands:
     init_us_2    :      0.00s CPU      0.00s WALL (      51 calls)
     cegterg      :      5.02s CPU      5.17s WALL (     114 calls)

     Called by *egterg:
     cdiaghg      :      0.28s CPU      0.29s WALL (    1816 calls)
     h_psi        :      3.40s CPU      3.51s WALL (    1930 calls)
     s_psi        :      0.13s CPU      0.13s WALL (    1930 calls)
     g_psi        :      0.03s CPU      0.03s WALL (    1765 calls)

     Called by h_psi:
     h_psi:calbec :      0.23s CPU      0.24s WALL (    1930 calls)
     vloc_psi     :      3.01s CPU      3.12s WALL (    1930 calls)
     add_vuspsi   :      0.13s CPU      0.14s WALL (    1930 calls)

     General routines
     calbec       :      0.23s CPU      0.23s WALL (    1930 calls)
     fft          :      0.12s CPU      0.13s WALL (      12 calls)
     fftw         :      2.76s CPU      2.85s WALL (   21320 calls)
     davcio       :      0.01s CPU      0.01s WALL (     102 calls)

     Parallel routines

     PWSCF        :      5.59s CPU      5.91s WALL


   This run was terminated on:  14:17:40  18Jul2025            

=------------------------------------------------------------------------------=
   JOB DONE.
=------------------------------------------------------------------------------=
