
     Program PWSCF v.7.4.1 starts on 10Jul2025 at  8:32:34 

     This program is part of the open-source Quantum ESPRESSO suite
     for quantum simulation of materials; please cite
         "P. Giannozzi et al., J. Phys.:Condens. Matter 21 395502 (2009);
         "P. Giannozzi et al., J. Phys.:Condens. Matter 29 465901 (2017);
         "P. Giannozzi et al., J. Chem. Phys. 152 154105 (2020);
          URL http://www.quantum-espresso.org", 
     in publications or presentations arising from this work. More details at
     http://www.quantum-espresso.org/quote

     Parallel version (MPI), running on     4 processors

     MPI processes distributed on     1 nodes
     185 MiB available memory on the printing compute node when the environment starts

     Reading input from 2.Fe.AFM.scf.in

     Current dimensions of program PWSCF are:
     Max number of different atomic species (ntypx) = 10
     Max number of k-points (npk) =  40000
     Max angular momentum in pseudopotentials (lmaxx) =  4
     file Fe.pbe-spn-kjpaw_psl.1.0.0.UPF: wavefunction(s)  3P 3D renormalized
     file Fe.pbe-spn-kjpaw_psl.1.0.0.UPF: wavefunction(s)  3P 3D renormalized

     R & G space division:  proc/nbgrp/npool/nimage =       4
     Subspace diagonalization in iterative solution of the eigenvalue problem:
     a serial algorithm will be used


     Parallelization info
     --------------------
     sticks:   dense  smooth     PW     G-vecs:    dense   smooth      PW
     Min          93      93     30                 1361     1361     254
     Max          94      94     31                 1364     1364     257
     Sum         373     373    121                 5449     5449    1021

     Using Slab Decomposition



     bravais-lattice index     =            1
     lattice parameter (alat)  =       5.4200  a.u.
     unit-cell volume          =     159.2201 (a.u.)^3
     number of atoms/cell      =            2
     number of atomic types    =            2
     number of electrons       =        32.00
     number of Kohn-Sham states=           20
     kinetic-energy cutoff     =      40.0000  Ry
     charge density cutoff     =     160.0000  Ry
     scf convergence threshold =      1.0E-06
     mixing beta               =       0.7000
     number of iterations used =            8  plain     mixing
     Exchange-correlation= SLA  PW   PBX  PBC
                           (   1   4   3   4   0   0   0)

     celldm(1)=   5.420000  celldm(2)=   0.000000  celldm(3)=   0.000000
     celldm(4)=   0.000000  celldm(5)=   0.000000  celldm(6)=   0.000000

     crystal axes: (cart. coord. in units of alat)
               a(1) = (   1.000000   0.000000   0.000000 )  
               a(2) = (   0.000000   1.000000   0.000000 )  
               a(3) = (   0.000000   0.000000   1.000000 )  

     reciprocal axes: (cart. coord. in units 2 pi/alat)
               b(1) = (  1.000000  0.000000  0.000000 )  
               b(2) = (  0.000000  1.000000  0.000000 )  
               b(3) = (  0.000000  0.000000  1.000000 )  


     PseudoPot. # 1 for Fe read from file:
     ./Fe.pbe-spn-kjpaw_psl.1.0.0.UPF
     MD5 check sum: fc81f059e5c5069939230b1155715ae8
     Pseudo is Projector augmented-wave + core cor, Zval = 16.0
     Generated using &quot;atomic&quot; code by A. Dal Corso  v.6.3
     Shape of augmentation charge: PSQ
     Using radial grid of 1191 points,  6 beta functions with: 
                l(1) =   0
                l(2) =   0
                l(3) =   1
                l(4) =   1
                l(5) =   2
                l(6) =   2
     Q(r) pseudized with 0 coefficients 


     PseudoPot. # 2 for Fe read from file:
     ./Fe.pbe-spn-kjpaw_psl.1.0.0.UPF
     MD5 check sum: fc81f059e5c5069939230b1155715ae8
     Pseudo is Projector augmented-wave + core cor, Zval = 16.0
     Generated using &quot;atomic&quot; code by A. Dal Corso  v.6.3
     Shape of augmentation charge: PSQ
     Using radial grid of 1191 points,  6 beta functions with: 
                l(1) =   0
                l(2) =   0
                l(3) =   1
                l(4) =   1
                l(5) =   2
                l(6) =   2
     Q(r) pseudized with 0 coefficients 


     atomic species   valence    mass     pseudopotential
     Fe1              16.00    55.84500     Fe( 1.00)
     Fe2              16.00    55.84500     Fe( 1.00)

     Starting magnetic structure 
     atomic species   magnetization
     Fe1             0.600
     Fe2            -0.600

     48 Sym. Ops., with inversion, found


                                    s                        frac. trans.

      isym =  1     identity                                     

 cryst.   s( 1) = (     1          0          0      )
                  (     0          1          0      )
                  (     0          0          1      )

 cart.    s( 1) = (  1.0000000  0.0000000  0.0000000 )
                  (  0.0000000  1.0000000  0.0000000 )
                  (  0.0000000  0.0000000  1.0000000 )


      isym =  2     180 deg rotation - cart. axis [0,0,1]        

 cryst.   s( 2) = (    -1          0          0      )
                  (     0         -1          0      )
                  (     0          0          1      )

 cart.    s( 2) = ( -1.0000000  0.0000000  0.0000000 )
                  (  0.0000000 -1.0000000  0.0000000 )
                  (  0.0000000  0.0000000  1.0000000 )


      isym =  3     180 deg rotation - cart. axis [0,1,0]        

 cryst.   s( 3) = (    -1          0          0      )
                  (     0          1          0      )
                  (     0          0         -1      )

 cart.    s( 3) = ( -1.0000000  0.0000000  0.0000000 )
                  (  0.0000000  1.0000000  0.0000000 )
                  (  0.0000000  0.0000000 -1.0000000 )


      isym =  4     180 deg rotation - cart. axis [1,0,0]        

 cryst.   s( 4) = (     1          0          0      )
                  (     0         -1          0      )
                  (     0          0         -1      )

 cart.    s( 4) = (  1.0000000  0.0000000  0.0000000 )
                  (  0.0000000 -1.0000000  0.0000000 )
                  (  0.0000000  0.0000000 -1.0000000 )


      isym =  5     180 deg rotation - cart. axis [1,1,0]        

 cryst.   s( 5) = (     0          1          0      )
                  (     1          0          0      )
                  (     0          0         -1      )

 cart.    s( 5) = (  0.0000000  1.0000000  0.0000000 )
                  (  1.0000000  0.0000000  0.0000000 )
                  (  0.0000000  0.0000000 -1.0000000 )


      isym =  6     180 deg rotation - cart. axis [1,-1,0]       

 cryst.   s( 6) = (     0         -1          0      )
                  (    -1          0          0      )
                  (     0          0         -1      )

 cart.    s( 6) = (  0.0000000 -1.0000000  0.0000000 )
                  ( -1.0000000  0.0000000  0.0000000 )
                  (  0.0000000  0.0000000 -1.0000000 )


      isym =  7      90 deg rotation - cart. axis [0,0,-1]       

 cryst.   s( 7) = (     0         -1          0      )
                  (     1          0          0      )
                  (     0          0          1      )

 cart.    s( 7) = (  0.0000000  1.0000000  0.0000000 )
                  ( -1.0000000  0.0000000  0.0000000 )
                  (  0.0000000  0.0000000  1.0000000 )


      isym =  8      90 deg rotation - cart. axis [0,0,1]        

 cryst.   s( 8) = (     0          1          0      )
                  (    -1          0          0      )
                  (     0          0          1      )

 cart.    s( 8) = (  0.0000000 -1.0000000  0.0000000 )
                  (  1.0000000  0.0000000  0.0000000 )
                  (  0.0000000  0.0000000  1.0000000 )


      isym =  9     180 deg rotation - cart. axis [1,0,1]        

 cryst.   s( 9) = (     0          0          1      )
                  (     0         -1          0      )
                  (     1          0          0      )

 cart.    s( 9) = (  0.0000000  0.0000000  1.0000000 )
                  (  0.0000000 -1.0000000  0.0000000 )
                  (  1.0000000  0.0000000  0.0000000 )


      isym = 10     180 deg rotation - cart. axis [-1,0,1]       

 cryst.   s(10) = (     0          0         -1      )
                  (     0         -1          0      )
                  (    -1          0          0      )

 cart.    s(10) = (  0.0000000  0.0000000 -1.0000000 )
                  (  0.0000000 -1.0000000  0.0000000 )
                  ( -1.0000000  0.0000000  0.0000000 )


      isym = 11      90 deg rotation - cart. axis [0,1,0]        

 cryst.   s(11) = (     0          0         -1      )
                  (     0          1          0      )
                  (     1          0          0      )

 cart.    s(11) = (  0.0000000  0.0000000  1.0000000 )
                  (  0.0000000  1.0000000  0.0000000 )
                  ( -1.0000000  0.0000000  0.0000000 )


      isym = 12      90 deg rotation - cart. axis [0,-1,0]       

 cryst.   s(12) = (     0          0          1      )
                  (     0          1          0      )
                  (    -1          0          0      )

 cart.    s(12) = (  0.0000000  0.0000000 -1.0000000 )
                  (  0.0000000  1.0000000  0.0000000 )
                  (  1.0000000  0.0000000  0.0000000 )


      isym = 13     180 deg rotation - cart. axis [0,1,1]        

 cryst.   s(13) = (    -1          0          0      )
                  (     0          0          1      )
                  (     0          1          0      )

 cart.    s(13) = ( -1.0000000  0.0000000  0.0000000 )
                  (  0.0000000  0.0000000  1.0000000 )
                  (  0.0000000  1.0000000  0.0000000 )


      isym = 14     180 deg rotation - cart. axis [0,1,-1]       

 cryst.   s(14) = (    -1          0          0      )
                  (     0          0         -1      )
                  (     0         -1          0      )

 cart.    s(14) = ( -1.0000000  0.0000000  0.0000000 )
                  (  0.0000000  0.0000000 -1.0000000 )
                  (  0.0000000 -1.0000000  0.0000000 )


      isym = 15      90 deg rotation - cart. axis [-1,0,0]       

 cryst.   s(15) = (     1          0          0      )
                  (     0          0         -1      )
                  (     0          1          0      )

 cart.    s(15) = (  1.0000000  0.0000000  0.0000000 )
                  (  0.0000000  0.0000000  1.0000000 )
                  (  0.0000000 -1.0000000  0.0000000 )


      isym = 16      90 deg rotation - cart. axis [1,0,0]        

 cryst.   s(16) = (     1          0          0      )
                  (     0          0          1      )
                  (     0         -1          0      )

 cart.    s(16) = (  1.0000000  0.0000000  0.0000000 )
                  (  0.0000000  0.0000000 -1.0000000 )
                  (  0.0000000  1.0000000  0.0000000 )


      isym = 17     120 deg rotation - cart. axis [-1,-1,-1]     

 cryst.   s(17) = (     0          0          1      )
                  (     1          0          0      )
                  (     0          1          0      )

 cart.    s(17) = (  0.0000000  1.0000000  0.0000000 )
                  (  0.0000000  0.0000000  1.0000000 )
                  (  1.0000000  0.0000000  0.0000000 )


      isym = 18     120 deg rotation - cart. axis [-1,1,1]       

 cryst.   s(18) = (     0          0         -1      )
                  (    -1          0          0      )
                  (     0          1          0      )

 cart.    s(18) = (  0.0000000 -1.0000000  0.0000000 )
                  (  0.0000000  0.0000000  1.0000000 )
                  ( -1.0000000  0.0000000  0.0000000 )


      isym = 19     120 deg rotation - cart. axis [1,1,-1]       

 cryst.   s(19) = (     0          0         -1      )
                  (     1          0          0      )
                  (     0         -1          0      )

 cart.    s(19) = (  0.0000000  1.0000000  0.0000000 )
                  (  0.0000000  0.0000000 -1.0000000 )
                  ( -1.0000000  0.0000000  0.0000000 )


      isym = 20     120 deg rotation - cart. axis [1,-1,1]       

 cryst.   s(20) = (     0          0          1      )
                  (    -1          0          0      )
                  (     0         -1          0      )

 cart.    s(20) = (  0.0000000 -1.0000000  0.0000000 )
                  (  0.0000000  0.0000000 -1.0000000 )
                  (  1.0000000  0.0000000  0.0000000 )


      isym = 21     120 deg rotation - cart. axis [1,1,1]        

 cryst.   s(21) = (     0          1          0      )
                  (     0          0          1      )
                  (     1          0          0      )

 cart.    s(21) = (  0.0000000  0.0000000  1.0000000 )
                  (  1.0000000  0.0000000  0.0000000 )
                  (  0.0000000  1.0000000  0.0000000 )


      isym = 22     120 deg rotation - cart. axis [-1,1,-1]      

 cryst.   s(22) = (     0         -1          0      )
                  (     0          0         -1      )
                  (     1          0          0      )

 cart.    s(22) = (  0.0000000  0.0000000  1.0000000 )
                  ( -1.0000000  0.0000000  0.0000000 )
                  (  0.0000000 -1.0000000  0.0000000 )


      isym = 23     120 deg rotation - cart. axis [1,-1,-1]      

 cryst.   s(23) = (     0         -1          0      )
                  (     0          0          1      )
                  (    -1          0          0      )

 cart.    s(23) = (  0.0000000  0.0000000 -1.0000000 )
                  ( -1.0000000  0.0000000  0.0000000 )
                  (  0.0000000  1.0000000  0.0000000 )


      isym = 24     120 deg rotation - cart. axis [-1,-1,1]      

 cryst.   s(24) = (     0          1          0      )
                  (     0          0         -1      )
                  (    -1          0          0      )

 cart.    s(24) = (  0.0000000  0.0000000 -1.0000000 )
                  (  1.0000000  0.0000000  0.0000000 )
                  (  0.0000000 -1.0000000  0.0000000 )


      isym = 25     inversion                                    

 cryst.   s(25) = (    -1          0          0      )
                  (     0         -1          0      )
                  (     0          0         -1      )

 cart.    s(25) = ( -1.0000000  0.0000000  0.0000000 )
                  (  0.0000000 -1.0000000  0.0000000 )
                  (  0.0000000  0.0000000 -1.0000000 )


      isym = 26     inv. 180 deg rotation - cart. axis [0,0,1]   

 cryst.   s(26) = (     1          0          0      )
                  (     0          1          0      )
                  (     0          0         -1      )

 cart.    s(26) = (  1.0000000  0.0000000  0.0000000 )
                  (  0.0000000  1.0000000  0.0000000 )
                  (  0.0000000  0.0000000 -1.0000000 )


      isym = 27     inv. 180 deg rotation - cart. axis [0,1,0]   

 cryst.   s(27) = (     1          0          0      )
                  (     0         -1          0      )
                  (     0          0          1      )

 cart.    s(27) = (  1.0000000  0.0000000  0.0000000 )
                  (  0.0000000 -1.0000000  0.0000000 )
                  (  0.0000000  0.0000000  1.0000000 )


      isym = 28     inv. 180 deg rotation - cart. axis [1,0,0]   

 cryst.   s(28) = (    -1          0          0      )
                  (     0          1          0      )
                  (     0          0          1      )

 cart.    s(28) = ( -1.0000000  0.0000000  0.0000000 )
                  (  0.0000000  1.0000000  0.0000000 )
                  (  0.0000000  0.0000000  1.0000000 )


      isym = 29     inv. 180 deg rotation - cart. axis [1,1,0]   

 cryst.   s(29) = (     0         -1          0      )
                  (    -1          0          0      )
                  (     0          0          1      )

 cart.    s(29) = (  0.0000000 -1.0000000  0.0000000 )
                  ( -1.0000000  0.0000000  0.0000000 )
                  (  0.0000000  0.0000000  1.0000000 )


      isym = 30     inv. 180 deg rotation - cart. axis [1,-1,0]  

 cryst.   s(30) = (     0          1          0      )
                  (     1          0          0      )
                  (     0          0          1      )

 cart.    s(30) = (  0.0000000  1.0000000  0.0000000 )
                  (  1.0000000  0.0000000  0.0000000 )
                  (  0.0000000  0.0000000  1.0000000 )


      isym = 31     inv.  90 deg rotation - cart. axis [0,0,-1]  

 cryst.   s(31) = (     0          1          0      )
                  (    -1          0          0      )
                  (     0          0         -1      )

 cart.    s(31) = (  0.0000000 -1.0000000  0.0000000 )
                  (  1.0000000  0.0000000  0.0000000 )
                  (  0.0000000  0.0000000 -1.0000000 )


      isym = 32     inv.  90 deg rotation - cart. axis [0,0,1]   

 cryst.   s(32) = (     0         -1          0      )
                  (     1          0          0      )
                  (     0          0         -1      )

 cart.    s(32) = (  0.0000000  1.0000000  0.0000000 )
                  ( -1.0000000  0.0000000  0.0000000 )
                  (  0.0000000  0.0000000 -1.0000000 )


      isym = 33     inv. 180 deg rotation - cart. axis [1,0,1]   

 cryst.   s(33) = (     0          0         -1      )
                  (     0          1          0      )
                  (    -1          0          0      )

 cart.    s(33) = (  0.0000000  0.0000000 -1.0000000 )
                  (  0.0000000  1.0000000  0.0000000 )
                  ( -1.0000000  0.0000000  0.0000000 )


      isym = 34     inv. 180 deg rotation - cart. axis [-1,0,1]  

 cryst.   s(34) = (     0          0          1      )
                  (     0          1          0      )
                  (     1          0          0      )

 cart.    s(34) = (  0.0000000  0.0000000  1.0000000 )
                  (  0.0000000  1.0000000  0.0000000 )
                  (  1.0000000  0.0000000  0.0000000 )


      isym = 35     inv.  90 deg rotation - cart. axis [0,1,0]   

 cryst.   s(35) = (     0          0          1      )
                  (     0         -1          0      )
                  (    -1          0          0      )

 cart.    s(35) = (  0.0000000  0.0000000 -1.0000000 )
                  (  0.0000000 -1.0000000  0.0000000 )
                  (  1.0000000  0.0000000  0.0000000 )


      isym = 36     inv.  90 deg rotation - cart. axis [0,-1,0]  

 cryst.   s(36) = (     0          0         -1      )
                  (     0         -1          0      )
                  (     1          0          0      )

 cart.    s(36) = (  0.0000000  0.0000000  1.0000000 )
                  (  0.0000000 -1.0000000  0.0000000 )
                  ( -1.0000000  0.0000000  0.0000000 )


      isym = 37     inv. 180 deg rotation - cart. axis [0,1,1]   

 cryst.   s(37) = (     1          0          0      )
                  (     0          0         -1      )
                  (     0         -1          0      )

 cart.    s(37) = (  1.0000000  0.0000000  0.0000000 )
                  (  0.0000000  0.0000000 -1.0000000 )
                  (  0.0000000 -1.0000000  0.0000000 )


      isym = 38     inv. 180 deg rotation - cart. axis [0,1,-1]  

 cryst.   s(38) = (     1          0          0      )
                  (     0          0          1      )
                  (     0          1          0      )

 cart.    s(38) = (  1.0000000  0.0000000  0.0000000 )
                  (  0.0000000  0.0000000  1.0000000 )
                  (  0.0000000  1.0000000  0.0000000 )


      isym = 39     inv.  90 deg rotation - cart. axis [-1,0,0]  

 cryst.   s(39) = (    -1          0          0      )
                  (     0          0          1      )
                  (     0         -1          0      )

 cart.    s(39) = ( -1.0000000  0.0000000  0.0000000 )
                  (  0.0000000  0.0000000 -1.0000000 )
                  (  0.0000000  1.0000000  0.0000000 )


      isym = 40     inv.  90 deg rotation - cart. axis [1,0,0]   

 cryst.   s(40) = (    -1          0          0      )
                  (     0          0         -1      )
                  (     0          1          0      )

 cart.    s(40) = ( -1.0000000  0.0000000  0.0000000 )
                  (  0.0000000  0.0000000  1.0000000 )
                  (  0.0000000 -1.0000000  0.0000000 )


      isym = 41     inv. 120 deg rotation - cart. axis [-1,-1,-1]

 cryst.   s(41) = (     0          0         -1      )
                  (    -1          0          0      )
                  (     0         -1          0      )

 cart.    s(41) = (  0.0000000 -1.0000000  0.0000000 )
                  (  0.0000000  0.0000000 -1.0000000 )
                  ( -1.0000000  0.0000000  0.0000000 )


      isym = 42     inv. 120 deg rotation - cart. axis [-1,1,1]  

 cryst.   s(42) = (     0          0          1      )
                  (     1          0          0      )
                  (     0         -1          0      )

 cart.    s(42) = (  0.0000000  1.0000000  0.0000000 )
                  (  0.0000000  0.0000000 -1.0000000 )
                  (  1.0000000  0.0000000  0.0000000 )


      isym = 43     inv. 120 deg rotation - cart. axis [1,1,-1]  

 cryst.   s(43) = (     0          0          1      )
                  (    -1          0          0      )
                  (     0          1          0      )

 cart.    s(43) = (  0.0000000 -1.0000000  0.0000000 )
                  (  0.0000000  0.0000000  1.0000000 )
                  (  1.0000000  0.0000000  0.0000000 )


      isym = 44     inv. 120 deg rotation - cart. axis [1,-1,1]  

 cryst.   s(44) = (     0          0         -1      )
                  (     1          0          0      )
                  (     0          1          0      )

 cart.    s(44) = (  0.0000000  1.0000000  0.0000000 )
                  (  0.0000000  0.0000000  1.0000000 )
                  ( -1.0000000  0.0000000  0.0000000 )


      isym = 45     inv. 120 deg rotation - cart. axis [1,1,1]   

 cryst.   s(45) = (     0         -1          0      )
                  (     0          0         -1      )
                  (    -1          0          0      )

 cart.    s(45) = (  0.0000000  0.0000000 -1.0000000 )
                  ( -1.0000000  0.0000000  0.0000000 )
                  (  0.0000000 -1.0000000  0.0000000 )


      isym = 46     inv. 120 deg rotation - cart. axis [-1,1,-1] 

 cryst.   s(46) = (     0          1          0      )
                  (     0          0          1      )
                  (    -1          0          0      )

 cart.    s(46) = (  0.0000000  0.0000000 -1.0000000 )
                  (  1.0000000  0.0000000  0.0000000 )
                  (  0.0000000  1.0000000  0.0000000 )


      isym = 47     inv. 120 deg rotation - cart. axis [1,-1,-1] 

 cryst.   s(47) = (     0          1          0      )
                  (     0          0         -1      )
                  (     1          0          0      )

 cart.    s(47) = (  0.0000000  0.0000000  1.0000000 )
                  (  1.0000000  0.0000000  0.0000000 )
                  (  0.0000000 -1.0000000  0.0000000 )


      isym = 48     inv. 120 deg rotation - cart. axis [-1,-1,1] 

 cryst.   s(48) = (     0         -1          0      )
                  (     0          0          1      )
                  (     1          0          0      )

 cart.    s(48) = (  0.0000000  0.0000000  1.0000000 )
                  ( -1.0000000  0.0000000  0.0000000 )
                  (  0.0000000  1.0000000  0.0000000 )


     point group O_h (m-3m) 
     there are 10 classes
     the character table:

       E     8C3   3C2   6C4   6C2'  i     8S6   3s_h  6S4   6s_d 
A_1g   1.00  1.00  1.00  1.00  1.00  1.00  1.00  1.00  1.00  1.00
A_2g   1.00  1.00  1.00 -1.00 -1.00  1.00  1.00  1.00 -1.00 -1.00
E_g    2.00 -1.00  2.00  0.00  0.00  2.00 -1.00  2.00  0.00  0.00
T_1g   3.00  0.00 -1.00  1.00 -1.00  3.00  0.00 -1.00  1.00 -1.00
T_2g   3.00  0.00 -1.00 -1.00  1.00  3.00  0.00 -1.00 -1.00  1.00
A_1u   1.00  1.00  1.00  1.00  1.00 -1.00 -1.00 -1.00 -1.00 -1.00
A_2u   1.00  1.00  1.00 -1.00 -1.00 -1.00 -1.00 -1.00  1.00  1.00
E_u    2.00 -1.00  2.00  0.00  0.00 -2.00  1.00 -2.00  0.00  0.00
T_1u   3.00  0.00 -1.00  1.00 -1.00 -3.00  0.00  1.00 -1.00  1.00
T_2u   3.00  0.00 -1.00 -1.00  1.00 -3.00  0.00  1.00  1.00 -1.00

     the symmetry operations in each class and the name of the first element:

     E        1
          identity                                               
     8C3     17   19   20   18   24   21   22   23
          120 deg rotation - cart. axis [-1,-1,-1]               
     3C2      2    4    3
          180 deg rotation - cart. axis [0,0,1]                  
     6C4      7    8   15   16   12   11
           90 deg rotation - cart. axis [0,0,-1]                 
     6C2'     5    6   14   13   10    9
          180 deg rotation - cart. axis [1,1,0]                  
     i       25
          inversion                                              
     8S6     41   43   44   42   48   45   46   47
          inv. 120 deg rotation - cart. axis [-1,-1,-1]          
     3s_h    26   28   27
          inv. 180 deg rotation - cart. axis [0,0,1]             
     6S4     31   32   39   40   36   35
          inv.  90 deg rotation - cart. axis [0,0,-1]            
     6s_d    29   30   38   37   34   33
          inv. 180 deg rotation - cart. axis [1,1,0]             

   Cartesian axes

     site n.     atom                  positions (alat units)
         1        Fe1    tau(   1) = (   0.0000000   0.0000000   0.0000000  )
         2        Fe2    tau(   2) = (   0.5000000   0.5000000   0.5000000  )

   Crystallographic axes

     site n.     atom                  positions (cryst. coord.)
         1        Fe1    tau(   1) = (  0.0000000  0.0000000  0.0000000  )
         2        Fe2    tau(   2) = (  0.5000000  0.5000000  0.5000000  )

     number of k points=    56  Marzari-Vanderbilt smearing, width (Ry)=  0.0100
                       cart. coord. in units 2pi/alat
        k(    1) = (   0.0000000   0.0000000   0.0000000), wk =   0.0010000
        k(    2) = (   0.0000000   0.0000000   0.1000000), wk =   0.0060000
        k(    3) = (   0.0000000   0.0000000   0.2000000), wk =   0.0060000
        k(    4) = (   0.0000000   0.0000000   0.3000000), wk =   0.0060000
        k(    5) = (   0.0000000   0.0000000   0.4000000), wk =   0.0060000
        k(    6) = (   0.0000000   0.0000000  -0.5000000), wk =   0.0030000
        k(    7) = (   0.0000000   0.1000000   0.1000000), wk =   0.0120000
        k(    8) = (   0.0000000   0.1000000   0.2000000), wk =   0.0240000
        k(    9) = (   0.0000000   0.1000000   0.3000000), wk =   0.0240000
        k(   10) = (   0.0000000   0.1000000   0.4000000), wk =   0.0240000
        k(   11) = (   0.0000000   0.1000000  -0.5000000), wk =   0.0120000
        k(   12) = (   0.0000000   0.2000000   0.2000000), wk =   0.0120000
        k(   13) = (   0.0000000   0.2000000   0.3000000), wk =   0.0240000
        k(   14) = (   0.0000000   0.2000000   0.4000000), wk =   0.0240000
        k(   15) = (   0.0000000   0.2000000  -0.5000000), wk =   0.0120000
        k(   16) = (   0.0000000   0.3000000   0.3000000), wk =   0.0120000
        k(   17) = (   0.0000000   0.3000000   0.4000000), wk =   0.0240000
        k(   18) = (   0.0000000   0.3000000  -0.5000000), wk =   0.0120000
        k(   19) = (   0.0000000   0.4000000   0.4000000), wk =   0.0120000
        k(   20) = (   0.0000000   0.4000000  -0.5000000), wk =   0.0120000
        k(   21) = (   0.0000000  -0.5000000  -0.5000000), wk =   0.0030000
        k(   22) = (   0.1000000   0.1000000   0.1000000), wk =   0.0080000
        k(   23) = (   0.1000000   0.1000000   0.2000000), wk =   0.0240000
        k(   24) = (   0.1000000   0.1000000   0.3000000), wk =   0.0240000
        k(   25) = (   0.1000000   0.1000000   0.4000000), wk =   0.0240000
        k(   26) = (   0.1000000   0.1000000  -0.5000000), wk =   0.0120000
        k(   27) = (   0.1000000   0.2000000   0.2000000), wk =   0.0240000
        k(   28) = (   0.1000000   0.2000000   0.3000000), wk =   0.0480000
        k(   29) = (   0.1000000   0.2000000   0.4000000), wk =   0.0480000
        k(   30) = (   0.1000000   0.2000000  -0.5000000), wk =   0.0240000
        k(   31) = (   0.1000000   0.3000000   0.3000000), wk =   0.0240000
        k(   32) = (   0.1000000   0.3000000   0.4000000), wk =   0.0480000
        k(   33) = (   0.1000000   0.3000000  -0.5000000), wk =   0.0240000
        k(   34) = (   0.1000000   0.4000000   0.4000000), wk =   0.0240000
        k(   35) = (   0.1000000   0.4000000  -0.5000000), wk =   0.0240000
        k(   36) = (   0.1000000  -0.5000000  -0.5000000), wk =   0.0060000
        k(   37) = (   0.2000000   0.2000000   0.2000000), wk =   0.0080000
        k(   38) = (   0.2000000   0.2000000   0.3000000), wk =   0.0240000
        k(   39) = (   0.2000000   0.2000000   0.4000000), wk =   0.0240000
        k(   40) = (   0.2000000   0.2000000  -0.5000000), wk =   0.0120000
        k(   41) = (   0.2000000   0.3000000   0.3000000), wk =   0.0240000
        k(   42) = (   0.2000000   0.3000000   0.4000000), wk =   0.0480000
        k(   43) = (   0.2000000   0.3000000  -0.5000000), wk =   0.0240000
        k(   44) = (   0.2000000   0.4000000   0.4000000), wk =   0.0240000
        k(   45) = (   0.2000000   0.4000000  -0.5000000), wk =   0.0240000
        k(   46) = (   0.2000000  -0.5000000  -0.5000000), wk =   0.0060000
        k(   47) = (   0.3000000   0.3000000   0.3000000), wk =   0.0080000
        k(   48) = (   0.3000000   0.3000000   0.4000000), wk =   0.0240000
        k(   49) = (   0.3000000   0.3000000  -0.5000000), wk =   0.0120000
        k(   50) = (   0.3000000   0.4000000   0.4000000), wk =   0.0240000
        k(   51) = (   0.3000000   0.4000000  -0.5000000), wk =   0.0240000
        k(   52) = (   0.3000000  -0.5000000  -0.5000000), wk =   0.0060000
        k(   53) = (   0.4000000   0.4000000   0.4000000), wk =   0.0080000
        k(   54) = (   0.4000000   0.4000000  -0.5000000), wk =   0.0120000
        k(   55) = (   0.4000000  -0.5000000  -0.5000000), wk =   0.0060000
        k(   56) = (  -0.5000000  -0.5000000  -0.5000000), wk =   0.0010000

                       cryst. coord.
        k(    1) = (   0.0000000   0.0000000   0.0000000), wk =   0.0010000
        k(    2) = (   0.0000000   0.0000000   0.1000000), wk =   0.0060000
        k(    3) = (   0.0000000   0.0000000   0.2000000), wk =   0.0060000
        k(    4) = (   0.0000000   0.0000000   0.3000000), wk =   0.0060000
        k(    5) = (   0.0000000   0.0000000   0.4000000), wk =   0.0060000
        k(    6) = (   0.0000000   0.0000000  -0.5000000), wk =   0.0030000
        k(    7) = (   0.0000000   0.1000000   0.1000000), wk =   0.0120000
        k(    8) = (   0.0000000   0.1000000   0.2000000), wk =   0.0240000
        k(    9) = (   0.0000000   0.1000000   0.3000000), wk =   0.0240000
        k(   10) = (   0.0000000   0.1000000   0.4000000), wk =   0.0240000
        k(   11) = (   0.0000000   0.1000000  -0.5000000), wk =   0.0120000
        k(   12) = (   0.0000000   0.2000000   0.2000000), wk =   0.0120000
        k(   13) = (   0.0000000   0.2000000   0.3000000), wk =   0.0240000
        k(   14) = (   0.0000000   0.2000000   0.4000000), wk =   0.0240000
        k(   15) = (   0.0000000   0.2000000  -0.5000000), wk =   0.0120000
        k(   16) = (   0.0000000   0.3000000   0.3000000), wk =   0.0120000
        k(   17) = (   0.0000000   0.3000000   0.4000000), wk =   0.0240000
        k(   18) = (   0.0000000   0.3000000  -0.5000000), wk =   0.0120000
        k(   19) = (   0.0000000   0.4000000   0.4000000), wk =   0.0120000
        k(   20) = (   0.0000000   0.4000000  -0.5000000), wk =   0.0120000
        k(   21) = (   0.0000000  -0.5000000  -0.5000000), wk =   0.0030000
        k(   22) = (   0.1000000   0.1000000   0.1000000), wk =   0.0080000
        k(   23) = (   0.1000000   0.1000000   0.2000000), wk =   0.0240000
        k(   24) = (   0.1000000   0.1000000   0.3000000), wk =   0.0240000
        k(   25) = (   0.1000000   0.1000000   0.4000000), wk =   0.0240000
        k(   26) = (   0.1000000   0.1000000  -0.5000000), wk =   0.0120000
        k(   27) = (   0.1000000   0.2000000   0.2000000), wk =   0.0240000
        k(   28) = (   0.1000000   0.2000000   0.3000000), wk =   0.0480000
        k(   29) = (   0.1000000   0.2000000   0.4000000), wk =   0.0480000
        k(   30) = (   0.1000000   0.2000000  -0.5000000), wk =   0.0240000
        k(   31) = (   0.1000000   0.3000000   0.3000000), wk =   0.0240000
        k(   32) = (   0.1000000   0.3000000   0.4000000), wk =   0.0480000
        k(   33) = (   0.1000000   0.3000000  -0.5000000), wk =   0.0240000
        k(   34) = (   0.1000000   0.4000000   0.4000000), wk =   0.0240000
        k(   35) = (   0.1000000   0.4000000  -0.5000000), wk =   0.0240000
        k(   36) = (   0.1000000  -0.5000000  -0.5000000), wk =   0.0060000
        k(   37) = (   0.2000000   0.2000000   0.2000000), wk =   0.0080000
        k(   38) = (   0.2000000   0.2000000   0.3000000), wk =   0.0240000
        k(   39) = (   0.2000000   0.2000000   0.4000000), wk =   0.0240000
        k(   40) = (   0.2000000   0.2000000  -0.5000000), wk =   0.0120000
        k(   41) = (   0.2000000   0.3000000   0.3000000), wk =   0.0240000
        k(   42) = (   0.2000000   0.3000000   0.4000000), wk =   0.0480000
        k(   43) = (   0.2000000   0.3000000  -0.5000000), wk =   0.0240000
        k(   44) = (   0.2000000   0.4000000   0.4000000), wk =   0.0240000
        k(   45) = (   0.2000000   0.4000000  -0.5000000), wk =   0.0240000
        k(   46) = (   0.2000000  -0.5000000  -0.5000000), wk =   0.0060000
        k(   47) = (   0.3000000   0.3000000   0.3000000), wk =   0.0080000
        k(   48) = (   0.3000000   0.3000000   0.4000000), wk =   0.0240000
        k(   49) = (   0.3000000   0.3000000  -0.5000000), wk =   0.0120000
        k(   50) = (   0.3000000   0.4000000   0.4000000), wk =   0.0240000
        k(   51) = (   0.3000000   0.4000000  -0.5000000), wk =   0.0240000
        k(   52) = (   0.3000000  -0.5000000  -0.5000000), wk =   0.0060000
        k(   53) = (   0.4000000   0.4000000   0.4000000), wk =   0.0080000
        k(   54) = (   0.4000000   0.4000000  -0.5000000), wk =   0.0120000
        k(   55) = (   0.4000000  -0.5000000  -0.5000000), wk =   0.0060000
        k(   56) = (  -0.5000000  -0.5000000  -0.5000000), wk =   0.0010000

     Dense  grid:     5449 G-vectors     FFT dimensions: (  24,  24,  24)

     Dynamical RAM for                 wfc:       0.05 MB

     Dynamical RAM for     wfc (w. buffer):       5.86 MB

     Dynamical RAM for           str. fact:       0.04 MB

     Dynamical RAM for           local pot:       0.00 MB

     Dynamical RAM for          nlocal pot:       0.09 MB

     Dynamical RAM for                qrad:       2.03 MB

     Dynamical RAM for          rho,v,vnew:       0.28 MB

     Dynamical RAM for               rhoin:       0.09 MB

     Dynamical RAM for            rho*nmix:       0.67 MB

     Dynamical RAM for           G-vectors:       0.09 MB

     Dynamical RAM for          h,s,v(r/c):       0.07 MB

     Dynamical RAM for          <psi|beta>:       0.01 MB

     Dynamical RAM for                 psi:       0.10 MB

     Dynamical RAM for                hpsi:       0.10 MB

     Dynamical RAM for                spsi:       0.10 MB

     Dynamical RAM for      wfcinit/wfcrot:       0.11 MB

     Dynamical RAM for           addusdens:       3.91 MB

     Estimated static dynamical RAM per process >       8.72 MB

     Estimated max dynamical RAM per process >      13.29 MB

     Estimated total dynamical RAM >      53.16 MB

     Check: negative core charge=   -0.000080
     Generating pointlists ...
     new r_m :   0.3572 (alat units)  1.9362 (a.u.) for type    1
     new r_m :   0.3572 (alat units)  1.9362 (a.u.) for type    2

     Initial potential from superposition of free atoms

     starting charge      31.9991, renormalised to      32.0000
     Starting wfcs are   20 randomized atomic wfcs
     Checking if some PAW data can be deallocated... 
       PAW data deallocated on    2 nodes for type:  1
       PAW data deallocated on    2 nodes for type:  2

     total cpu time spent up to now is        1.3 secs

     Self-consistent Calculation

     iteration #  1     ecut=    40.00 Ry     beta= 0.70
     Davidson diagonalization with overlap

---- Real-time Memory Report at c_bands before calling an iterative solver
            75 MiB given to the printing process from OS
             0 MiB allocation reported by mallinfo(arena+hblkhd)
           143 MiB available memory on the node where the printing process lives
------------------
     ethr =  1.00E-02,  avg # of iterations =  3.7

     negative rho (up, down):  2.267E-03 2.274E-03

     total cpu time spent up to now is        3.3 secs

     total energy              =    -657.65759361 Ry
     estimated scf accuracy    <       1.92358381 Ry

     total magnetization       =     0.00 Bohr mag/cell
     absolute magnetization    =     7.87 Bohr mag/cell

     iteration #  2     ecut=    40.00 Ry     beta= 0.70
     Davidson diagonalization with overlap

---- Real-time Memory Report at c_bands before calling an iterative solver
            82 MiB given to the printing process from OS
             0 MiB allocation reported by mallinfo(arena+hblkhd)
           202 MiB available memory on the node where the printing process lives
------------------
     ethr =  6.01E-03,  avg # of iterations =  2.7

     negative rho (up, down):  2.150E-03 2.154E-03

     total cpu time spent up to now is        5.1 secs

     total energy              =    -657.84190759 Ry
     estimated scf accuracy    <       0.51760435 Ry

     total magnetization       =     0.00 Bohr mag/cell
     absolute magnetization    =     6.60 Bohr mag/cell

     iteration #  3     ecut=    40.00 Ry     beta= 0.70
     Davidson diagonalization with overlap

---- Real-time Memory Report at c_bands before calling an iterative solver
            82 MiB given to the printing process from OS
             0 MiB allocation reported by mallinfo(arena+hblkhd)
           210 MiB available memory on the node where the printing process lives
------------------
     ethr =  1.62E-03,  avg # of iterations =  3.1

     negative rho (up, down):  2.478E-03 2.472E-03

     total cpu time spent up to now is        7.3 secs

     total energy              =    -657.94365128 Ry
     estimated scf accuracy    <       0.55154372 Ry

     total magnetization       =    -0.01 Bohr mag/cell
     absolute magnetization    =     5.89 Bohr mag/cell

     iteration #  4     ecut=    40.00 Ry     beta= 0.70
     Davidson diagonalization with overlap

---- Real-time Memory Report at c_bands before calling an iterative solver
            82 MiB given to the printing process from OS
             0 MiB allocation reported by mallinfo(arena+hblkhd)
           163 MiB available memory on the node where the printing process lives
------------------
     ethr =  1.62E-03,  avg # of iterations =  2.3

     negative rho (up, down):  2.235E-03 2.299E-03

     total cpu time spent up to now is        9.0 secs

     total energy              =    -658.03468866 Ry
     estimated scf accuracy    <       0.01339077 Ry

     total magnetization       =     0.10 Bohr mag/cell
     absolute magnetization    =     5.07 Bohr mag/cell

     iteration #  5     ecut=    40.00 Ry     beta= 0.70
     Davidson diagonalization with overlap

---- Real-time Memory Report at c_bands before calling an iterative solver
            82 MiB given to the printing process from OS
             0 MiB allocation reported by mallinfo(arena+hblkhd)
           173 MiB available memory on the node where the printing process lives
------------------
     ethr =  4.18E-05,  avg # of iterations =  3.7

     negative rho (up, down):  1.615E-03 1.624E-03

     total cpu time spent up to now is       11.1 secs

     total energy              =    -658.03748740 Ry
     estimated scf accuracy    <       0.18813324 Ry

     total magnetization       =    -0.55 Bohr mag/cell
     absolute magnetization    =     4.82 Bohr mag/cell

     iteration #  6     ecut=    40.00 Ry     beta= 0.70
     Davidson diagonalization with overlap

---- Real-time Memory Report at c_bands before calling an iterative solver
            82 MiB given to the printing process from OS
             0 MiB allocation reported by mallinfo(arena+hblkhd)
           209 MiB available memory on the node where the printing process lives
------------------
     ethr =  4.18E-05,  avg # of iterations =  2.2

     negative rho (up, down):  1.336E-03 1.352E-03

     total cpu time spent up to now is       13.2 secs

     total energy              =    -658.04602807 Ry
     estimated scf accuracy    <       0.00548345 Ry

     total magnetization       =     0.01 Bohr mag/cell
     absolute magnetization    =     4.34 Bohr mag/cell

     iteration #  7     ecut=    40.00 Ry     beta= 0.70
     Davidson diagonalization with overlap

---- Real-time Memory Report at c_bands before calling an iterative solver
            82 MiB given to the printing process from OS
             0 MiB allocation reported by mallinfo(arena+hblkhd)
           212 MiB available memory on the node where the printing process lives
------------------
     ethr =  1.71E-05,  avg # of iterations =  3.3

     negative rho (up, down):  1.051E-03 1.089E-03

     total cpu time spent up to now is       17.7 secs

     total energy              =    -658.04653484 Ry
     estimated scf accuracy    <       0.01222457 Ry

     total magnetization       =     0.03 Bohr mag/cell
     absolute magnetization    =     4.20 Bohr mag/cell

     iteration #  8     ecut=    40.00 Ry     beta= 0.70
     Davidson diagonalization with overlap

---- Real-time Memory Report at c_bands before calling an iterative solver
            82 MiB given to the printing process from OS
             0 MiB allocation reported by mallinfo(arena+hblkhd)
           167 MiB available memory on the node where the printing process lives
------------------
     ethr =  1.71E-05,  avg # of iterations =  3.4

     negative rho (up, down):  1.004E-03 1.049E-03

     total cpu time spent up to now is       20.1 secs

     total energy              =    -658.05208354 Ry
     estimated scf accuracy    <       0.00030079 Ry

     total magnetization       =     0.07 Bohr mag/cell
     absolute magnetization    =     3.80 Bohr mag/cell

     iteration #  9     ecut=    40.00 Ry     beta= 0.70
     Davidson diagonalization with overlap

---- Real-time Memory Report at c_bands before calling an iterative solver
            82 MiB given to the printing process from OS
             0 MiB allocation reported by mallinfo(arena+hblkhd)
           222 MiB available memory on the node where the printing process lives
------------------
     ethr =  9.40E-07,  avg # of iterations =  2.1

     negative rho (up, down):  7.267E-04 8.354E-04

     total cpu time spent up to now is       21.9 secs

     total energy              =    -658.04902373 Ry
     estimated scf accuracy    <       0.00022403 Ry

     total magnetization       =     0.07 Bohr mag/cell
     absolute magnetization    =     3.73 Bohr mag/cell

     iteration # 10     ecut=    40.00 Ry     beta= 0.70
     Davidson diagonalization with overlap

---- Real-time Memory Report at c_bands before calling an iterative solver
            85 MiB given to the printing process from OS
             0 MiB allocation reported by mallinfo(arena+hblkhd)
           168 MiB available memory on the node where the printing process lives
------------------
     ethr =  7.00E-07,  avg # of iterations =  4.6

     negative rho (up, down):  8.507E-04 9.487E-04

     total cpu time spent up to now is       24.8 secs

     total energy              =    -658.05211353 Ry
     estimated scf accuracy    <       0.00036120 Ry

     total magnetization       =     0.14 Bohr mag/cell
     absolute magnetization    =     3.30 Bohr mag/cell

     iteration # 11     ecut=    40.00 Ry     beta= 0.70
     Davidson diagonalization with overlap

---- Real-time Memory Report at c_bands before calling an iterative solver
            85 MiB given to the printing process from OS
             0 MiB allocation reported by mallinfo(arena+hblkhd)
           171 MiB available memory on the node where the printing process lives
------------------
     ethr =  7.00E-07,  avg # of iterations =  3.6

     negative rho (up, down):  7.819E-04 8.995E-04

     total cpu time spent up to now is       27.3 secs

     total energy              =    -658.05279285 Ry
     estimated scf accuracy    <       0.00016246 Ry

     total magnetization       =     0.14 Bohr mag/cell
     absolute magnetization    =     3.49 Bohr mag/cell

     iteration # 12     ecut=    40.00 Ry     beta= 0.70
     Davidson diagonalization with overlap

---- Real-time Memory Report at c_bands before calling an iterative solver
            85 MiB given to the printing process from OS
             0 MiB allocation reported by mallinfo(arena+hblkhd)
           214 MiB available memory on the node where the printing process lives
------------------
     ethr =  5.08E-07,  avg # of iterations =  2.1

     negative rho (up, down):  5.968E-04 6.787E-04

     total cpu time spent up to now is       29.3 secs

     total energy              =    -658.05018071 Ry
     estimated scf accuracy    <       0.00008246 Ry

     total magnetization       =     0.16 Bohr mag/cell
     absolute magnetization    =     3.40 Bohr mag/cell

     iteration # 13     ecut=    40.00 Ry     beta= 0.70
     Davidson diagonalization with overlap

---- Real-time Memory Report at c_bands before calling an iterative solver
            85 MiB given to the printing process from OS
             0 MiB allocation reported by mallinfo(arena+hblkhd)
           161 MiB available memory on the node where the printing process lives
------------------
     ethr =  2.58E-07,  avg # of iterations =  4.6

     negative rho (up, down):  8.388E-04 7.674E-04

     total cpu time spent up to now is       32.2 secs

     total energy              =    -658.05097948 Ry
     estimated scf accuracy    <       0.00051259 Ry

     total magnetization       =     0.08 Bohr mag/cell
     absolute magnetization    =     3.12 Bohr mag/cell

     iteration # 14     ecut=    40.00 Ry     beta= 0.70
     Davidson diagonalization with overlap

---- Real-time Memory Report at c_bands before calling an iterative solver
            85 MiB given to the printing process from OS
             0 MiB allocation reported by mallinfo(arena+hblkhd)
           202 MiB available memory on the node where the printing process lives
------------------
     ethr =  2.58E-07,  avg # of iterations =  4.7

     negative rho (up, down):  8.312E-04 8.474E-04

     total cpu time spent up to now is       35.2 secs

     total energy              =    -658.05272951 Ry
     estimated scf accuracy    <       0.00019562 Ry

     total magnetization       =    -0.10 Bohr mag/cell
     absolute magnetization    =     3.38 Bohr mag/cell

     iteration # 15     ecut=    40.00 Ry     beta= 0.70
     Davidson diagonalization with overlap

---- Real-time Memory Report at c_bands before calling an iterative solver
            85 MiB given to the printing process from OS
             0 MiB allocation reported by mallinfo(arena+hblkhd)
           211 MiB available memory on the node where the printing process lives
------------------
     ethr =  2.58E-07,  avg # of iterations =  2.6

     negative rho (up, down):  8.278E-04 8.232E-04

     total cpu time spent up to now is       37.3 secs

     total energy              =    -658.05289726 Ry
     estimated scf accuracy    <       0.00000583 Ry

     total magnetization       =     0.02 Bohr mag/cell
     absolute magnetization    =     3.40 Bohr mag/cell

     iteration # 16     ecut=    40.00 Ry     beta= 0.70
     Davidson diagonalization with overlap

---- Real-time Memory Report at c_bands before calling an iterative solver
            85 MiB given to the printing process from OS
             0 MiB allocation reported by mallinfo(arena+hblkhd)
           211 MiB available memory on the node where the printing process lives
------------------
     ethr =  1.82E-08,  avg # of iterations =  3.4

     negative rho (up, down):  8.295E-04 8.290E-04

     total cpu time spent up to now is       39.9 secs

     total energy              =    -658.05292045 Ry
     estimated scf accuracy    <       0.00000102 Ry

     total magnetization       =    -0.01 Bohr mag/cell
     absolute magnetization    =     3.38 Bohr mag/cell

     iteration # 17     ecut=    40.00 Ry     beta= 0.70
     Davidson diagonalization with overlap

---- Real-time Memory Report at c_bands before calling an iterative solver
            85 MiB given to the printing process from OS
             0 MiB allocation reported by mallinfo(arena+hblkhd)
           161 MiB available memory on the node where the printing process lives
------------------
     ethr =  3.19E-09,  avg # of iterations =  2.4

     negative rho (up, down):  8.292E-04 8.284E-04

     Magnetic moment per site  (integrated on atomic sphere of radius R)
     atom   1 (R=0.357)  charge= 14.4166  magn=  1.6273
     atom   2 (R=0.357)  charge= 14.4164  magn= -1.6279

     total cpu time spent up to now is       42.1 secs

     End of self-consistent calculation

 ------ SPIN UP ------------


          k = 0.0000 0.0000 0.0000 (   691 PWs)   bands (ev):

   -70.6162 -68.7606 -36.4914 -36.4914 -36.4914 -34.6449 -34.6449 -34.6449
     9.2740  13.4722  13.4722  16.1284  16.1284  16.1284  18.1519  18.1519
    18.6480  18.6480  18.6480  27.1078

     occupation numbers 
     1.0000   1.0000   1.0000   1.0000   1.0000   1.0000   1.0000   1.0000
     1.0000   1.0000   1.0000   1.0000   1.0000   1.0000   0.0001   0.0001
     0.0000   0.0000   0.0000   0.0000

          k = 0.0000 0.0000 0.1000 (   695 PWs)   bands (ev):

   -70.6165 -68.7604 -36.4939 -36.4939 -36.4880 -34.6659 -34.6599 -34.6599
     9.4644  13.5530  13.6153  16.0294  16.0294  16.1562  17.9260  17.9918
    18.5800  18.5800  18.6244  25.9072

     occupation numbers 
     1.0000   1.0000   1.0000   1.0000   1.0000   1.0000   1.0000   1.0000
     1.0000   1.0000   1.0000   1.0000   1.0000   1.0000   0.0980   0.0200
     0.0000   0.0000   0.0000   0.0000

          k = 0.0000 0.0000 0.2000 (   683 PWs)   bands (ev):

   -70.6146 -68.7589 -36.4873 -36.4724 -36.4724 -34.6747 -34.6555 -34.6555
    10.0452  13.8071  13.8535  16.0117  16.0117  16.2275  17.5745  17.9953
    18.2835  18.2835  18.6267  23.6832

     occupation numbers 
     1.0000   1.0000   1.0000   1.0000   1.0000   1.0000   1.0000   1.0000
     1.0000   1.0000   1.0000   1.0000   1.0000   1.0000   1.0448   0.0182
     0.0000   0.0000   0.0000   0.0000

          k = 0.0000 0.0000 0.3000 (   683 PWs)   bands (ev):

   -70.6128 -68.7584 -36.4927 -36.4756 -36.4756 -34.6875 -34.6639 -34.6639
    10.9607  14.0199  14.1896  15.9792  15.9792  16.4359  17.1807  17.7896
    17.7896  18.0252  18.3782  21.6252

     occupation numbers 
     1.0000   1.0000   1.0000   1.0000   1.0000   1.0000   1.0000   1.0000
     1.0000   1.0000   1.0000   1.0000   1.0000   1.0000   1.0000   0.6798
     0.6798   0.0075   0.0000   0.0000

          k = 0.0000 0.0000 0.4000 (   683 PWs)   bands (ev):

   -70.6111 -68.7578 -36.5011 -36.4749 -36.4749 -34.6978 -34.6662 -34.6662
    12.0785  13.8889  14.5460  16.0181  16.0181  16.6532  16.8036  17.3703
    17.3703  18.0073  18.1295  20.1951

     occupation numbers 
     1.0000   1.0000   1.0000   1.0000   1.0000   1.0000   1.0000   1.0000
     1.0000   1.0000   1.0000   1.0000   1.0000   1.0000   1.0000   1.0002
     1.0002   0.0129   0.0002   0.0000

          k = 0.0000 0.0000-0.5000 (   682 PWs)   bands (ev):

   -70.6104 -68.7575 -36.4994 -36.4752 -36.4752 -34.6969 -34.6678 -34.6678
    12.9545  13.4451  14.6927  16.0588  16.0588  16.6152  16.7706  17.1972
    17.1972  17.8643  18.0302  19.7998

     occupation numbers 
     1.0000   1.0000   1.0000   1.0000   1.0000   1.0000   1.0000   1.0000
     1.0000   1.0000   1.0000   1.0000   1.0000   1.0000   1.0000   1.0000
     1.0000   0.2926   0.0064   0.0000

          k = 0.0000 0.1000 0.1000 (   693 PWs)   bands (ev):

   -70.6161 -68.7602 -36.5138 -36.4857 -36.4746 -34.6816 -34.6607 -34.6569
     9.6595  13.6477  13.7010  15.9604  15.9942  16.2174  17.8790  17.9154
    18.4042  18.4219  18.6936  25.9906

     occupation numbers 
     1.0000   1.0000   1.0000   1.0000   1.0000   1.0000   1.0000   1.0000
     1.0000   1.0000   1.0000   1.0000   1.0000   1.0000   0.2332   0.1213
     0.0000   0.0000   0.0000   0.0000

          k = 0.0000 0.1000 0.2000 (   685 PWs)   bands (ev):

   -70.6142 -68.7590 -36.4980 -36.4799 -36.4738 -34.6794 -34.6632 -34.6550
    10.2369  13.8710  13.9388  15.8653  15.9405  16.3887  17.6785  17.9575
    17.9925  18.0844  18.7273  23.9323

     occupation numbers 
     1.0000   1.0000   1.0000   1.0000   1.0000   1.0000   1.0000   1.0000
     1.0000   1.0000   1.0000   1.0000   1.0000   1.0000   1.0695   0.0484
     0.0196   0.0010   0.0000   0.0000

          k = 0.0000 0.1000 0.3000 (   683 PWs)   bands (ev):

   -70.6121 -68.7580 -36.5001 -36.4752 -36.4746 -34.6915 -34.6614 -34.6592
    11.1344  14.0800  14.2607  15.8091  15.8934  16.4988  17.3819  17.5970
    17.6332  18.0775  18.5439  21.8187

     occupation numbers 
     1.0000   1.0000   1.0000   1.0000   1.0000   1.0000   1.0000   1.0000
     1.0000   1.0000   1.0000   1.0000   1.0000   1.0000   1.0002   1.0602
     1.0805   0.0013   0.0000   0.0000

          k = 0.0000 0.1000 0.4000 (   675 PWs)   bands (ev):

   -70.6097 -68.7566 -36.4980 -36.4636 -36.4618 -34.6918 -34.6531 -34.6515
    12.2203  13.9557  14.5986  15.8647  15.9020  16.4703  17.1013  17.2751
    17.5903  18.1308  18.3545  20.2942

     occupation numbers 
     1.0000   1.0000   1.0000   1.0000   1.0000   1.0000   1.0000   1.0000
     1.0000   1.0000   1.0000   1.0000   1.0000   1.0000   1.0000   1.0000
     1.0556   0.0002   0.0000   0.0000

          k = 0.0000 0.1000-0.5000 (   680 PWs)   bands (ev):

   -70.6096 -68.7568 -36.5048 -36.4758 -36.4647 -34.6997 -34.6685 -34.6543
    13.0665  13.5065  14.7426  15.9014  15.9141  16.3383  16.9619  17.1518
    17.6282  18.0001  18.1743  19.8103

     occupation numbers 
     1.0000   1.0000   1.0000   1.0000   1.0000   1.0000   1.0000   1.0000
     1.0000   1.0000   1.0000   1.0000   1.0000   1.0000   1.0000   1.0000
     1.0785   0.0159   0.0000   0.0000

          k = 0.0000 0.2000 0.2000 (   688 PWs)   bands (ev):

   -70.6132 -68.7585 -36.5145 -36.4843 -36.4732 -34.6863 -34.6789 -34.6592
    10.7746  14.0037  14.2114  15.6497  15.8083  16.4910  17.5838  17.7000
    17.8099  17.9327  18.8365  23.9396

     occupation numbers 
     1.0000   1.0000   1.0000   1.0000   1.0000   1.0000   1.0000   1.0000
     1.0000   1.0000   1.0000   1.0000   1.0000   1.0000   1.0511   1.0377
     0.5681   0.0851   0.0000   0.0000

          k = 0.0000 0.2000 0.3000 (   686 PWs)   bands (ev):

   -70.6112 -68.7573 -36.5187 -36.4918 -36.4639 -34.6974 -34.6804 -34.6528
    11.5997  14.1004  14.5502  15.5346  15.7284  16.3276  17.3190  17.6379
    17.7250  18.0441  18.8049  22.1713

     occupation numbers 
     1.0000   1.0000   1.0000   1.0000   1.0000   1.0000   1.0000   1.0000
     1.0000   1.0000   1.0000   1.0000   1.0000   1.0000   1.0000   1.0819
     0.9727   0.0041   0.0000   0.0000

          k = 0.0000 0.2000 0.4000 (   674 PWs)   bands (ev):

   -70.6083 -68.7554 -36.4997 -36.4755 -36.4610 -34.6794 -34.6633 -34.6521
    12.5569  13.9820  14.8238  15.5466  15.8500  15.9959  17.1884  17.5571
    18.0238  18.2598  18.6309  20.5260

     occupation numbers 
     1.0000   1.0000   1.0000   1.0000   1.0000   1.0000   1.0000   1.0000
     1.0000   1.0000   1.0000   1.0000   1.0000   1.0000   1.0000   1.0338
     0.0079   0.0000   0.0000   0.0000

          k = 0.0000 0.2000-0.5000 (   680 PWs)   bands (ev):

   -70.6084 -68.7558 -36.5120 -36.4888 -36.4654 -34.6955 -34.6689 -34.6575
    13.2777  13.5803  14.9075  15.5976  15.8029  15.9220  17.1262  17.5292
    18.1614  18.2425  18.4448  19.8223

     occupation numbers 
     1.0000   1.0000   1.0000   1.0000   1.0000   1.0000   1.0000   1.0000
     1.0000   1.0000   1.0000   1.0000   1.0000   1.0000   1.0000   1.0198
     0.0000   0.0000   0.0000   0.0000

          k = 0.0000 0.3000 0.3000 (   676 PWs)   bands (ev):

   -70.6085 -68.7550 -36.5070 -36.4879 -36.4533 -34.6810 -34.6775 -34.6444
    12.2518  14.0216  15.0317  15.3380  15.7671  15.9476  17.2440  17.8798
    18.0220  18.0774  19.0430  21.8644

     occupation numbers 
     1.0000   1.0000   1.0000   1.0000   1.0000   1.0000   1.0000   1.0000
     1.0000   1.0000   1.0000   1.0000   1.0000   1.0000   1.0000   0.2300
     0.0083   0.0013   0.0000   0.0000

          k = 0.0000 0.3000 0.4000 (   680 PWs)   bands (ev):

   -70.6076 -68.7547 -36.5199 -36.5034 -36.4608 -34.6911 -34.6830 -34.6524
    12.9102  13.7929  15.2574  15.3866  15.5692  16.0864  17.2036  17.9044
    18.2224  18.3750  18.9066  20.5701

     occupation numbers 
     1.0000   1.0000   1.0000   1.0000   1.0000   1.0000   1.0000   1.0000
     1.0000   1.0000   1.0000   1.0000   1.0000   1.0000   1.0000   0.1500
     0.0000   0.0000   0.0000   0.0000

          k = 0.0000 0.3000-0.5000 (   686 PWs)   bands (ev):

   -70.6077 -68.7549 -36.5263 -36.5194 -36.4669 -34.7017 -34.6932 -34.6586
    13.3508  13.5090  15.2728  15.3546  15.4566  16.4723  17.0800  17.9346
    18.3570  18.5986  18.7209  19.7341

     occupation numbers 
     1.0000   1.0000   1.0000   1.0000   1.0000   1.0000   1.0000   1.0000
     1.0000   1.0000   1.0000   1.0000   1.0000   1.0000   1.0000   0.0815
     0.0000   0.0000   0.0000   0.0000

          k = 0.0000 0.4000 0.4000 (   680 PWs)   bands (ev):

   -70.6065 -68.7538 -36.5190 -36.5147 -36.4698 -34.6923 -34.6853 -34.6623
    13.1441  13.5719  15.0565  15.2360  16.1019  16.5772  17.3814  18.1091
    18.1592  18.6863  19.0684  20.0784

     occupation numbers 
     1.0000   1.0000   1.0000   1.0000   1.0000   1.0000   1.0000   1.0000
     1.0000   1.0000   1.0000   1.0000   1.0000   1.0000   1.0002   0.0004
     0.0000   0.0000   0.0000   0.0000

          k = 0.0000 0.4000-0.5000 (   678 PWs)   bands (ev):

   -70.6058 -68.7532 -36.5235 -36.5206 -36.4594 -34.6931 -34.6899 -34.6512
    13.3070  13.3909  15.0491  15.0748  16.3486  17.1074  17.3576  18.2288
    18.2439  18.9526  18.9894  19.5124

     occupation numbers 
     1.0000   1.0000   1.0000   1.0000   1.0000   1.0000   1.0000   1.0000
     1.0000   1.0000   1.0000   1.0000   1.0000   1.0000   1.0001   0.0000
     0.0000   0.0000   0.0000   0.0000

          k = 0.0000-0.5000-0.5000 (   680 PWs)   bands (ev):

   -70.6058 -68.7531 -36.5228 -36.5228 -36.4757 -34.6918 -34.6918 -34.6676
    13.2684  13.3421  14.9366  14.9366  16.9089  17.1364  17.9345  17.9345
    18.3196  19.0571  19.0571  19.2178

     occupation numbers 
     1.0000   1.0000   1.0000   1.0000   1.0000   1.0000   1.0000   1.0000
     1.0000   1.0000   1.0000   1.0000   1.0000   1.0000   0.0817   0.0817
     0.0000   0.0000   0.0000   0.0000

          k = 0.1000 0.1000 0.1000 (   697 PWs)   bands (ev):

   -70.6162 -68.7604 -36.5092 -36.5092 -36.4754 -34.6812 -34.6812 -34.6644
     9.8514  13.7449  13.7449  15.8918  15.8918  16.3086  17.8511  17.8511
    18.0060  18.5997  18.5997  26.3411

     occupation numbers 
     1.0000   1.0000   1.0000   1.0000   1.0000   1.0000   1.0000   1.0000
     1.0000   1.0000   1.0000   1.0000   1.0000   1.0000   0.3523   0.3523
     0.0134   0.0000   0.0000   0.0000

          k = 0.1000 0.1000 0.2000 (   689 PWs)   bands (ev):

   -70.6141 -68.7591 -36.5099 -36.4819 -36.4816 -34.6852 -34.6714 -34.6605
    10.4233  13.9546  13.9718  15.7671  15.8223  16.4443  17.6525  17.7305
    17.9566  18.2824  18.6227  24.1833

     occupation numbers 
     1.0000   1.0000   1.0000   1.0000   1.0000   1.0000   1.0000   1.0000
     1.0000   1.0000   1.0000   1.0000   1.0000   1.0000   1.0831   0.9545
     0.0495   0.0000   0.0000   0.0000

          k = 0.1000 0.1000 0.3000 (   684 PWs)   bands (ev):

   -70.6118 -68.7577 -36.5058 -36.4803 -36.4747 -34.6922 -34.6652 -34.6608
    11.3039  14.1782  14.2510  15.7411  15.7446  16.3823  17.4861  17.5324
    17.8274  18.0298  18.5748  22.0298

     occupation numbers 
     1.0000   1.0000   1.0000   1.0000   1.0000   1.0000   1.0000   1.0000
     1.0000   1.0000   1.0000   1.0000   1.0000   1.0000   1.0071   1.0212
     0.4722   0.0065   0.0000   0.0000

          k = 0.1000 0.1000 0.4000 (   675 PWs)   bands (ev):

   -70.6091 -68.7562 -36.4979 -36.4668 -36.4632 -34.6890 -34.6542 -34.6525
    12.3593  14.0556  14.6095  15.6764  15.8547  16.2426  17.2881  17.4007
    17.5958  18.1528  18.5163  20.4454

     occupation numbers 
     1.0000   1.0000   1.0000   1.0000   1.0000   1.0000   1.0000   1.0000
     1.0000   1.0000   1.0000   1.0000   1.0000   1.0000   1.0000   1.0005
     1.0594   0.0001   0.0000   0.0000

          k = 0.1000 0.1000-0.5000 (   668 PWs)   bands (ev):

   -70.6079 -68.7552 -36.4902 -36.4585 -36.4529 -34.6828 -34.6461 -34.6460
    13.1944  13.5806  14.7696  15.6862  16.0058  16.1405  17.2031  17.2981
    17.5486  18.3527  18.3874  19.8607

     occupation numbers 
     1.0000   1.0000   1.0000   1.0000   1.0000   1.0000   1.0000   1.0000
     1.0000   1.0000   1.0000   1.0000   1.0000   1.0000   1.0000   1.0000
     1.0291   0.0000   0.0000   0.0000

          k = 0.1000 0.2000 0.2000 (   688 PWs)   bands (ev):

   -70.6127 -68.7582 -36.5105 -36.4893 -36.4785 -34.6860 -34.6792 -34.6643
    10.9583  14.0864  14.2443  15.5825  15.6859  16.3295  17.5619  17.7566
    17.8922  18.1055  18.7018  24.2784

     occupation numbers 
     1.0000   1.0000   1.0000   1.0000   1.0000   1.0000   1.0000   1.0000
     1.0000   1.0000   1.0000   1.0000   1.0000   1.0000   1.0367   0.8480
     0.1867   0.0004   0.0000   0.0000

          k = 0.1000 0.2000 0.3000 (   687 PWs)   bands (ev):

   -70.6108 -68.7570 -36.5116 -36.4925 -36.4782 -34.6926 -34.6807 -34.6655
    11.7697  14.2060  14.5663  15.4680  15.6076  16.0233  17.4814  17.7359
    17.8796  18.0227  18.7355  22.4731

     occupation numbers 
     1.0000   1.0000   1.0000   1.0000   1.0000   1.0000   1.0000   1.0000
     1.0000   1.0000   1.0000   1.0000   1.0000   1.0000   1.0063   0.9351
     0.2308   0.0081   0.0000   0.0000

          k = 0.1000 0.2000 0.4000 (   677 PWs)   bands (ev):

   -70.6082 -68.7552 -36.5061 -36.4787 -36.4675 -34.6879 -34.6644 -34.6572
    12.7036  14.0885  14.7867  15.4271  15.7204  15.8851  17.3032  17.6364
    17.8644  18.3874  18.7523  20.7531

     occupation numbers 
     1.0000   1.0000   1.0000   1.0000   1.0000   1.0000   1.0000   1.0000
     1.0000   1.0000   1.0000   1.0000   1.0000   1.0000   1.0000   1.0815
     0.2920   0.0000   0.0000   0.0000

          k = 0.1000 0.2000-0.5000 (   682 PWs)   bands (ev):

   -70.6082 -68.7555 -36.5099 -36.4901 -36.4789 -34.6930 -34.6722 -34.6689
    13.4154  13.6675  14.8459  15.4029  15.6909  15.9522  17.1883  17.6218
    17.6826  18.5449  18.8884  19.9130

     occupation numbers 
     1.0000   1.0000   1.0000   1.0000   1.0000   1.0000   1.0000   1.0000
     1.0000   1.0000   1.0000   1.0000   1.0000   1.0000   1.0000   1.0755
     1.0650   0.0000   0.0000   0.0000

          k = 0.1000 0.3000 0.3000 (   682 PWs)   bands (ev):

   -70.6086 -68.7553 -36.5145 -36.4919 -36.4743 -34.6884 -34.6800 -34.6627
    12.4277  14.1149  15.0349  15.2915  15.6066  15.6794  17.3413  17.9512
    17.9883  18.3012  18.8382  22.2587

     occupation numbers 
     1.0000   1.0000   1.0000   1.0000   1.0000   1.0000   1.0000   1.0000
     1.0000   1.0000   1.0000   1.0000   1.0000   1.0000   1.0000   0.0561
     0.0220   0.0000   0.0000   0.0000

          k = 0.1000 0.3000 0.4000 (   683 PWs)   bands (ev):

   -70.6075 -68.7545 -36.5212 -36.5054 -36.4731 -34.6949 -34.6868 -34.6640
    13.0702  13.8961  15.1831  15.2809  15.4662  15.9341  17.2253  17.8726
    18.0585  18.7439  18.9254  20.9499

     occupation numbers 
     1.0000   1.0000   1.0000   1.0000   1.0000   1.0000   1.0000   1.0000
     1.0000   1.0000   1.0000   1.0000   1.0000   1.0000   1.0000   0.2580
     0.0025   0.0000   0.0000   0.0000

          k = 0.1000 0.3000-0.5000 (   682 PWs)   bands (ev):

   -70.6070 -68.7542 -36.5175 -36.5140 -36.4716 -34.6952 -34.6910 -34.6620
    13.5038  13.6139  15.1964  15.2259  15.4514  16.3224  17.1247  17.8110
    18.0105  18.8415  19.3961  19.9876

     occupation numbers 
     1.0000   1.0000   1.0000   1.0000   1.0000   1.0000   1.0000   1.0000
     1.0000   1.0000   1.0000   1.0000   1.0000   1.0000   1.0000   0.5618
     0.0117   0.0000   0.0000   0.0000

          k = 0.1000 0.4000 0.4000 (   680 PWs)   bands (ev):

   -70.6061 -68.7534 -36.5230 -36.5213 -36.4640 -34.6946 -34.6941 -34.6557
    13.3120  13.6874  15.0389  15.1878  16.0268  16.3640  17.2583  17.8203
    18.2485  19.0219  19.1982  20.6077

     occupation numbers 
     1.0000   1.0000   1.0000   1.0000   1.0000   1.0000   1.0000   1.0000
     1.0000   1.0000   1.0000   1.0000   1.0000   1.0000   1.0000   0.5106
     0.0000   0.0000   0.0000   0.0000

          k = 0.1000 0.4000-0.5000 (   674 PWs)   bands (ev):

   -70.6051 -68.7525 -36.5179 -36.5143 -36.4596 -34.6893 -34.6856 -34.6516
    13.4707  13.5104  15.0312  15.0579  16.2785  16.9906  17.1254  17.6940
    18.3091  19.0941  19.7457  19.9735

     occupation numbers 
     1.0000   1.0000   1.0000   1.0000   1.0000   1.0000   1.0000   1.0000
     1.0000   1.0000   1.0000   1.0000   1.0000   1.0000   1.0000   1.0486
     0.0000   0.0000   0.0000   0.0000

          k = 0.1000-0.5000-0.5000 (   676 PWs)   bands (ev):

   -70.6049 -68.7524 -36.5178 -36.5178 -36.4732 -34.6867 -34.6867 -34.6661
    13.4518  13.4747  14.9520  14.9520  16.9475  17.1405  17.3196  17.3196
    18.3840  19.2564  19.8105  19.8105

     occupation numbers 
     1.0000   1.0000   1.0000   1.0000   1.0000   1.0000   1.0000   1.0000
     1.0000   1.0000   1.0000   1.0000   1.0000   1.0000   1.0000   1.0000
     0.0000   0.0000   0.0000   0.0000

          k = 0.2000 0.2000 0.2000 (   690 PWs)   bands (ev):

   -70.6116 -68.7575 -36.5032 -36.5032 -36.4890 -34.6846 -34.6846 -34.6805
    11.4759  14.3697  14.3697  15.4674  15.4674  15.8674  17.7862  17.7862
    17.8351  18.3901  18.3901  25.1830

     occupation numbers 
     1.0000   1.0000   1.0000   1.0000   1.0000   1.0000   1.0000   1.0000
     1.0000   1.0000   1.0000   1.0000   1.0000   1.0000   0.6983   0.6983
     0.4318   0.0000   0.0000   0.0000

          k = 0.2000 0.2000 0.3000 (   683 PWs)   bands (ev):

   -70.6091 -68.7556 -36.5053 -36.4913 -36.4825 -34.6883 -34.6763 -34.6702
    12.2498  14.5573  14.5717  15.3572  15.3614  15.5779  17.6279  17.7803
    18.1207  18.3070  18.6240  23.1327

     occupation numbers 
     1.0000   1.0000   1.0000   1.0000   1.0000   1.0000   1.0000   1.0000
     1.0000   1.0000   1.0000   1.0000   1.0000   1.0000   1.0784   0.7301
     0.0002   0.0000   0.0000   0.0000

          k = 0.2000 0.2000 0.4000 (   678 PWs)   bands (ev):

   -70.6073 -68.7544 -36.5104 -36.4887 -36.4750 -34.6910 -34.6711 -34.6656
    13.1009  14.3433  14.6958  15.2559  15.4385  15.6800  17.4156  17.5989
    17.9759  18.6974  19.0348  21.2994

     occupation numbers 
     1.0000   1.0000   1.0000   1.0000   1.0000   1.0000   1.0000   1.0000
     1.0000   1.0000   1.0000   1.0000   1.0000   1.0000   1.0008   1.0615
     0.0306   0.0000   0.0000   0.0000

          k = 0.2000 0.2000-0.5000 (   668 PWs)   bands (ev):

   -70.6059 -68.7532 -36.5001 -36.4777 -36.4627 -34.6816 -34.6565 -34.6553
    13.8039  13.8796  14.8038  15.1546  15.4847  15.9324  17.3706  17.3961
    17.9935  18.7821  19.7061  20.2487

     occupation numbers 
     1.0000   1.0000   1.0000   1.0000   1.0000   1.0000   1.0000   1.0000
     1.0000   1.0000   1.0000   1.0000   1.0000   1.0000   1.0002   1.0004
     0.0191   0.0000   0.0000   0.0000

          k = 0.2000 0.3000 0.3000 (   678 PWs)   bands (ev):

   -70.6071 -68.7541 -36.5113 -36.4887 -36.4786 -34.6913 -34.6753 -34.6645
    12.9079  14.4701  15.0065  15.1770  15.2683  15.3019  17.4990  17.7444
    18.2869  18.7068  18.8723  23.2341

     occupation numbers 
     1.0000   1.0000   1.0000   1.0000   1.0000   1.0000   1.0000   1.0000
     1.0000   1.0000   1.0000   1.0000   1.0000   1.0000   1.0099   0.9014
     0.0000   0.0000   0.0000   0.0000

          k = 0.2000 0.3000 0.4000 (   678 PWs)   bands (ev):

   -70.6060 -68.7532 -36.5147 -36.4970 -36.4813 -34.6949 -34.6799 -34.6696
    13.5183  14.2507  15.0306  15.0805  15.2652  15.6754  17.3290  17.5569
    18.2867  18.8544  19.5332  21.8349

     occupation numbers 
     1.0000   1.0000   1.0000   1.0000   1.0000   1.0000   1.0000   1.0000
     1.0000   1.0000   1.0000   1.0000   1.0000   1.0000   1.0000   1.0337
     0.0000   0.0000   0.0000   0.0000

          k = 0.2000 0.3000-0.5000 (   670 PWs)   bands (ev):

   -70.6048 -68.7522 -36.5053 -36.4975 -36.4673 -34.6831 -34.6765 -34.6578
    13.9099  13.9838  15.0281  15.0466  15.3222  16.0542  17.2092  17.4852
    18.3185  18.9697  20.3559  20.6150

     occupation numbers 
     1.0000   1.0000   1.0000   1.0000   1.0000   1.0000   1.0000   1.0000
     1.0000   1.0000   1.0000   1.0000   1.0000   1.0000   1.0000   1.0069
     0.0000   0.0000   0.0000   0.0000

          k = 0.2000 0.4000 0.4000 (   680 PWs)   bands (ev):

   -70.6052 -68.7524 -36.5247 -36.5092 -36.4824 -34.7003 -34.6923 -34.6727
    13.7446  14.0224  14.9448  14.9798  15.8237  15.9038  17.2263  17.4090
    18.4515  19.0093  20.1890  21.7385

     occupation numbers 
     1.0000   1.0000   1.0000   1.0000   1.0000   1.0000   1.0000   1.0000
     1.0000   1.0000   1.0000   1.0000   1.0000   1.0000   1.0000   1.0007
     0.0000   0.0000   0.0000   0.0000

          k = 0.2000 0.4000-0.5000 (   678 PWs)   bands (ev):

   -70.6046 -68.7519 -36.5179 -36.5141 -36.4855 -34.6963 -34.6910 -34.6775
    13.8225  13.9243  14.9113  14.9342  15.9656  16.3712  17.1088  17.2827
    18.4829  19.1354  20.9076  20.9780

     occupation numbers 
     1.0000   1.0000   1.0000   1.0000   1.0000   1.0000   1.0000   1.0000
     1.0000   1.0000   1.0000   1.0000   1.0000   1.0000   1.0000   1.0000
     0.0000   0.0000   0.0000   0.0000

          k = 0.2000-0.5000-0.5000 (   680 PWs)   bands (ev):

   -70.6045 -68.7517 -36.5225 -36.5225 -36.4894 -34.6970 -34.6970 -34.6828
    13.7528  13.8572  14.8685  14.8685  16.5558  16.5558  16.9399  17.1217
    18.5399  19.2501  21.1586  21.1586

     occupation numbers 
     1.0000   1.0000   1.0000   1.0000   1.0000   1.0000   1.0000   1.0000
     1.0000   1.0000   1.0000   1.0000   1.0000   1.0000   1.0000   1.0000
     0.0000   0.0000   0.0000   0.0000

          k = 0.3000 0.3000 0.3000 (   672 PWs)   bands (ev):

   -70.6051 -68.7522 -36.4927 -36.4927 -36.4812 -34.6809 -34.6809 -34.6636
    13.5505  14.8560  14.9738  14.9738  15.1050  15.1050  17.5117  17.5117
    18.6348  18.6348  19.5320  24.5494

     occupation numbers 
     1.0000   1.0000   1.0000   1.0000   1.0000   1.0000   1.0000   1.0000
     1.0000   1.0000   1.0000   1.0000   1.0000   1.0000   1.0134   1.0134
     0.0000   0.0000   0.0000   0.0000

          k = 0.3000 0.3000 0.4000 (   680 PWs)   bands (ev):

   -70.6050 -68.7522 -36.5194 -36.5051 -36.4931 -34.7038 -34.6864 -34.6850
    14.0190  14.5680  14.8832  14.9887  15.0283  15.5306  17.3072  17.3293
    18.5948  18.8772  20.2864  22.8137

     occupation numbers 
     1.0000   1.0000   1.0000   1.0000   1.0000   1.0000   1.0000   1.0000
     1.0000   1.0000   1.0000   1.0000   1.0000   1.0000   1.0000   1.0000
     0.0000   0.0000   0.0000   0.0000

          k = 0.3000 0.3000-0.5000 (   674 PWs)   bands (ev):

   -70.6042 -68.7515 -36.5086 -36.5033 -36.4910 -34.6922 -34.6855 -34.6850
    14.1469  14.4838  14.8588  15.0145  15.0721  15.8563  17.1448  17.2797
    18.5933  19.0179  21.3372  21.4170

     occupation numbers 
     1.0000   1.0000   1.0000   1.0000   1.0000   1.0000   1.0000   1.0000
     1.0000   1.0000   1.0000   1.0000   1.0000   1.0000   1.0000   1.0000
     0.0000   0.0000   0.0000   0.0000

          k = 0.3000 0.4000 0.4000 (   671 PWs)   bands (ev):

   -70.6033 -68.7506 -36.5082 -36.5065 -36.4852 -34.6957 -34.6940 -34.6741
    14.2101  14.5986  14.8254  14.8723  15.4948  15.5815  17.2069  17.2110
    18.7737  19.0514  21.1953  23.1887

     occupation numbers 
     1.0000   1.0000   1.0000   1.0000   1.0000   1.0000   1.0000   1.0000
     1.0000   1.0000   1.0000   1.0000   1.0000   1.0000   1.0000   1.0000
     0.0000   0.0000   0.0000   0.0000

          k = 0.3000 0.4000-0.5000 (   668 PWs)   bands (ev):

   -70.6028 -68.7501 -36.5080 -36.5059 -36.4828 -34.6944 -34.6941 -34.6749
    14.2055  14.5637  14.7835  14.8494  15.6064  15.9282  17.0475  17.1773
    18.8086  19.1544  22.2295  22.2380

     occupation numbers 
     1.0000   1.0000   1.0000   1.0000   1.0000   1.0000   1.0000   1.0000
     1.0000   1.0000   1.0000   1.0000   1.0000   1.0000   1.0000   1.0000
     0.0000   0.0000   0.0000   0.0000

          k = 0.3000-0.5000-0.5000 (   668 PWs)   bands (ev):

   -70.6023 -68.7498 -36.5092 -36.5092 -36.4834 -34.6959 -34.6959 -34.6781
    14.1778  14.5318  14.7628  14.7628  15.9919  15.9919  16.9455  17.1284
    18.8683  19.2585  22.7039  22.7039

     occupation numbers 
     1.0000   1.0000   1.0000   1.0000   1.0000   1.0000   1.0000   1.0000
     1.0000   1.0000   1.0000   1.0000   1.0000   1.0000   1.0000   1.0000
     0.0000   0.0000   0.0000   0.0000

          k = 0.4000 0.4000 0.4000 (   672 PWs)   bands (ev):

   -70.6027 -68.7498 -36.5071 -36.5071 -36.5038 -34.7013 -34.7013 -34.6900
    14.4270  14.7340  14.7340  15.2099  15.3859  15.3859  17.0769  17.0769
    19.0326  19.0326  22.2616  24.8238

     occupation numbers 
     1.0000   1.0000   1.0000   1.0000   1.0000   1.0000   1.0000   1.0000
     1.0000   1.0000   1.0000   1.0000   1.0000   1.0000   1.0000   1.0000
     0.0000   0.0000   0.0000   0.0000

          k = 0.4000 0.4000-0.5000 (   674 PWs)   bands (ev):

   -70.6025 -68.7498 -36.5186 -36.5079 -36.5068 -34.7101 -34.7035 -34.6974
    14.4370  14.6899  14.6939  15.2435  15.3050  15.6549  16.9841  17.0399
    19.0428  19.1770  23.4628  23.4770

     occupation numbers 
     1.0000   1.0000   1.0000   1.0000   1.0000   1.0000   1.0000   1.0000
     1.0000   1.0000   1.0000   1.0000   1.0000   1.0000   1.0000   1.0000
     0.0000   0.0000   0.0000   0.0000

          k = 0.4000-0.5000-0.5000 (   676 PWs)   bands (ev):

   -70.6026 -68.7497 -36.5186 -36.5131 -36.5131 -34.7143 -34.7068 -34.7068
    14.5077  14.6638  14.6638  15.1518  15.5856  15.5856  16.9095  16.9575
    19.0652  19.2257  24.3674  24.3674

     occupation numbers 
     1.0000   1.0000   1.0000   1.0000   1.0000   1.0000   1.0000   1.0000
     1.0000   1.0000   1.0000   1.0000   1.0000   1.0000   1.0000   1.0000
     0.0000   0.0000   0.0000   0.0000

          k =-0.5000-0.5000-0.5000 (   672 PWs)   bands (ev):

   -70.6020 -68.7493 -36.5135 -36.5135 -36.5135 -34.7097 -34.7097 -34.7097
    14.6355  14.6355  14.6355  15.4562  15.4562  15.4562  16.9102  16.9102
    19.2273  19.2273  26.0931  26.0932

     occupation numbers 
     1.0000   1.0000   1.0000   1.0000   1.0000   1.0000   1.0000   1.0000
     1.0000   1.0000   1.0000   1.0000   1.0000   1.0000   1.0000   1.0000
     0.0000   0.0000   0.0000   0.0000

 ------ SPIN DOWN ----------


          k = 0.0000 0.0000 0.0000 (   691 PWs)   bands (ev):

   -70.6163 -68.7609 -36.4915 -36.4915 -36.4915 -34.6452 -34.6452 -34.6452
     9.2739  13.4719  13.4719  16.1285  16.1285  16.1285  18.1514  18.1514
    18.6480  18.6480  18.6480  27.1078

     occupation numbers 
     1.0000   1.0000   1.0000   1.0000   1.0000   1.0000   1.0000   1.0000
     1.0000   1.0000   1.0000   1.0000   1.0000   1.0000   0.0001   0.0001
     0.0000   0.0000   0.0000   0.0000

          k = 0.0000 0.0000 0.1000 (   695 PWs)   bands (ev):

   -70.6165 -68.7607 -36.4940 -36.4940 -36.4881 -34.6662 -34.6601 -34.6601
     9.4644  13.5526  13.6150  16.0295  16.0295  16.1563  17.9255  17.9913
    18.5800  18.5800  18.6244  25.9071

     occupation numbers 
     1.0000   1.0000   1.0000   1.0000   1.0000   1.0000   1.0000   1.0000
     1.0000   1.0000   1.0000   1.0000   1.0000   1.0000   0.0990   0.0203
     0.0000   0.0000   0.0000   0.0000

          k = 0.0000 0.0000 0.2000 (   683 PWs)   bands (ev):

   -70.6147 -68.7592 -36.4874 -36.4724 -36.4724 -34.6750 -34.6558 -34.6558
    10.0451  13.8068  13.8532  16.0118  16.0118  16.2276  17.5740  17.9948
    18.2835  18.2835  18.6267  23.6831

     occupation numbers 
     1.0000   1.0000   1.0000   1.0000   1.0000   1.0000   1.0000   1.0000
     1.0000   1.0000   1.0000   1.0000   1.0000   1.0000   1.0444   0.0184
     0.0000   0.0000   0.0000   0.0000

          k = 0.0000 0.0000 0.3000 (   683 PWs)   bands (ev):

   -70.6129 -68.7587 -36.4928 -36.4757 -36.4757 -34.6878 -34.6642 -34.6642
    10.9606  14.0196  14.1892  15.9792  15.9792  16.4360  17.1802  17.7896
    17.7896  18.0247  18.3782  21.6249

     occupation numbers 
     1.0000   1.0000   1.0000   1.0000   1.0000   1.0000   1.0000   1.0000
     1.0000   1.0000   1.0000   1.0000   1.0000   1.0000   1.0000   0.6798
     0.6798   0.0077   0.0000   0.0000

          k = 0.0000 0.0000 0.4000 (   683 PWs)   bands (ev):

   -70.6112 -68.7581 -36.5012 -36.4750 -36.4750 -34.6981 -34.6665 -34.6665
    12.0784  13.8887  14.5456  16.0182  16.0182  16.6533  16.8031  17.3703
    17.3703  18.0069  18.1295  20.1947

     occupation numbers 
     1.0000   1.0000   1.0000   1.0000   1.0000   1.0000   1.0000   1.0000
     1.0000   1.0000   1.0000   1.0000   1.0000   1.0000   1.0000   1.0002
     1.0002   0.0131   0.0002   0.0000

          k = 0.0000 0.0000-0.5000 (   682 PWs)   bands (ev):

   -70.6105 -68.7578 -36.4995 -36.4753 -36.4753 -34.6972 -34.6681 -34.6681
    12.9544  13.4449  14.6923  16.0589  16.0589  16.6147  16.7707  17.1972
    17.1972  17.8640  18.0302  19.7992

     occupation numbers 
     1.0000   1.0000   1.0000   1.0000   1.0000   1.0000   1.0000   1.0000
     1.0000   1.0000   1.0000   1.0000   1.0000   1.0000   1.0000   1.0000
     1.0000   0.2940   0.0064   0.0000

          k = 0.0000 0.1000 0.1000 (   693 PWs)   bands (ev):

   -70.6162 -68.7605 -36.5139 -36.4858 -36.4747 -34.6819 -34.6610 -34.6572
     9.6594  13.6474  13.7006  15.9604  15.9943  16.2174  17.8785  17.9149
    18.4042  18.4219  18.6936  25.9905

     occupation numbers 
     1.0000   1.0000   1.0000   1.0000   1.0000   1.0000   1.0000   1.0000
     1.0000   1.0000   1.0000   1.0000   1.0000   1.0000   0.2352   0.1226
     0.0000   0.0000   0.0000   0.0000

          k = 0.0000 0.1000 0.2000 (   685 PWs)   bands (ev):

   -70.6143 -68.7593 -36.4981 -36.4800 -36.4739 -34.6797 -34.6635 -34.6553
    10.2368  13.8707  13.9384  15.8654  15.9406  16.3888  17.6780  17.9571
    17.9925  18.0843  18.7273  23.9322

     occupation numbers 
     1.0000   1.0000   1.0000   1.0000   1.0000   1.0000   1.0000   1.0000
     1.0000   1.0000   1.0000   1.0000   1.0000   1.0000   1.0700   0.0489
[...]
    17.8274  18.0294  18.5748  22.0296

     occupation numbers 
     1.0000   1.0000   1.0000   1.0000   1.0000   1.0000   1.0000   1.0000
     1.0000   1.0000   1.0000   1.0000   1.0000   1.0000   1.0070   1.0211
     0.4725   0.0066   0.0000   0.0000

          k = 0.1000 0.1000 0.4000 (   675 PWs)   bands (ev):

   -70.6092 -68.7565 -36.4980 -36.4669 -36.4633 -34.6893 -34.6545 -34.6528
    12.3592  14.0554  14.6091  15.6764  15.8548  16.2426  17.2878  17.4006
    17.5957  18.1526  18.5161  20.4450

     occupation numbers 
     1.0000   1.0000   1.0000   1.0000   1.0000   1.0000   1.0000   1.0000
     1.0000   1.0000   1.0000   1.0000   1.0000   1.0000   1.0000   1.0005
     1.0593   0.0001   0.0000   0.0000

          k = 0.1000 0.1000-0.5000 (   668 PWs)   bands (ev):

   -70.6079 -68.7555 -36.4903 -36.4586 -36.4530 -34.6831 -34.6464 -34.6462
    13.1942  13.5804  14.7693  15.6861  16.0058  16.1405  17.2027  17.2980
    17.5485  18.3526  18.3873  19.8601

     occupation numbers 
     1.0000   1.0000   1.0000   1.0000   1.0000   1.0000   1.0000   1.0000
     1.0000   1.0000   1.0000   1.0000   1.0000   1.0000   1.0000   1.0000
     1.0290   0.0000   0.0000   0.0000

          k = 0.1000 0.2000 0.2000 (   688 PWs)   bands (ev):

   -70.6128 -68.7585 -36.5106 -36.4894 -36.4786 -34.6863 -34.6795 -34.6646
    10.9582  14.0861  14.2440  15.5826  15.6860  16.3296  17.5619  17.7563
    17.8918  18.1054  18.7018  24.2782

     occupation numbers 
     1.0000   1.0000   1.0000   1.0000   1.0000   1.0000   1.0000   1.0000
     1.0000   1.0000   1.0000   1.0000   1.0000   1.0000   1.0367   0.8497
     0.1883   0.0004   0.0000   0.0000

          k = 0.1000 0.2000 0.3000 (   687 PWs)   bands (ev):

   -70.6109 -68.7573 -36.5117 -36.4926 -36.4783 -34.6929 -34.6809 -34.6658
    11.7696  14.2057  14.5660  15.4680  15.6076  16.0233  17.4813  17.7355
    17.8795  18.0224  18.7354  22.4729

     occupation numbers 
     1.0000   1.0000   1.0000   1.0000   1.0000   1.0000   1.0000   1.0000
     1.0000   1.0000   1.0000   1.0000   1.0000   1.0000   1.0063   0.9363
     0.2311   0.0082   0.0000   0.0000

          k = 0.1000 0.2000 0.4000 (   677 PWs)   bands (ev):

   -70.6083 -68.7555 -36.5062 -36.4788 -36.4676 -34.6882 -34.6647 -34.6575
    12.7035  14.0883  14.7864  15.4272  15.7204  15.8850  17.3031  17.6360
    17.8642  18.3874  18.7521  20.7528

     occupation numbers 
     1.0000   1.0000   1.0000   1.0000   1.0000   1.0000   1.0000   1.0000
     1.0000   1.0000   1.0000   1.0000   1.0000   1.0000   1.0000   1.0814
     0.2928   0.0000   0.0000   0.0000

          k = 0.1000 0.2000-0.5000 (   682 PWs)   bands (ev):

   -70.6083 -68.7557 -36.5100 -36.4902 -36.4790 -34.6933 -34.6725 -34.6692
    13.4152  13.6674  14.8456  15.4029  15.6910  15.9521  17.1881  17.6214
    17.6824  18.5448  18.8883  19.9125

     occupation numbers 
     1.0000   1.0000   1.0000   1.0000   1.0000   1.0000   1.0000   1.0000
     1.0000   1.0000   1.0000   1.0000   1.0000   1.0000   1.0000   1.0753
     1.0652   0.0000   0.0000   0.0000

          k = 0.1000 0.3000 0.3000 (   682 PWs)   bands (ev):

   -70.6087 -68.7556 -36.5146 -36.4920 -36.4744 -34.6887 -34.6802 -34.6630
    12.4276  14.1147  15.0346  15.2915  15.6066  15.6795  17.3412  17.9508
    17.9879  18.3012  18.8381  22.2584

     occupation numbers 
     1.0000   1.0000   1.0000   1.0000   1.0000   1.0000   1.0000   1.0000
     1.0000   1.0000   1.0000   1.0000   1.0000   1.0000   1.0000   0.0567
     0.0223   0.0000   0.0000   0.0000

          k = 0.1000 0.3000 0.4000 (   683 PWs)   bands (ev):

   -70.6076 -68.7548 -36.5213 -36.5055 -36.4732 -34.6952 -34.6870 -34.6643
    13.0701  13.8960  15.1831  15.2807  15.4662  15.9340  17.2251  17.8723
    18.0582  18.7439  18.9252  20.9496

     occupation numbers 
     1.0000   1.0000   1.0000   1.0000   1.0000   1.0000   1.0000   1.0000
     1.0000   1.0000   1.0000   1.0000   1.0000   1.0000   1.0000   0.2593
     0.0026   0.0000   0.0000   0.0000

          k = 0.1000 0.3000-0.5000 (   682 PWs)   bands (ev):

   -70.6071 -68.7545 -36.5176 -36.5141 -36.4717 -34.6954 -34.6913 -34.6622
    13.5036  13.6138  15.1964  15.2259  15.4512  16.3222  17.1245  17.8109
    18.0101  18.8414  19.3960  19.9872

     occupation numbers 
     1.0000   1.0000   1.0000   1.0000   1.0000   1.0000   1.0000   1.0000
     1.0000   1.0000   1.0000   1.0000   1.0000   1.0000   1.0000   0.5626
     0.0119   0.0000   0.0000   0.0000

          k = 0.1000 0.4000 0.4000 (   680 PWs)   bands (ev):

   -70.6062 -68.7537 -36.5231 -36.5214 -36.4640 -34.6949 -34.6944 -34.6560
    13.3119  13.6873  15.0389  15.1878  16.0265  16.3639  17.2582  17.8201
    18.2481  19.0217  19.1982  20.6075

     occupation numbers 
     1.0000   1.0000   1.0000   1.0000   1.0000   1.0000   1.0000   1.0000
     1.0000   1.0000   1.0000   1.0000   1.0000   1.0000   1.0000   0.5120
     0.0000   0.0000   0.0000   0.0000

          k = 0.1000 0.4000-0.5000 (   674 PWs)   bands (ev):

   -70.6052 -68.7528 -36.5180 -36.5144 -36.4596 -34.6896 -34.6859 -34.6519
    13.4705  13.5103  15.0312  15.0579  16.2782  16.9905  17.1251  17.6939
    18.3087  19.0937  19.7457  19.9733

     occupation numbers 
     1.0000   1.0000   1.0000   1.0000   1.0000   1.0000   1.0000   1.0000
     1.0000   1.0000   1.0000   1.0000   1.0000   1.0000   1.0000   1.0489
     0.0000   0.0000   0.0000   0.0000

          k = 0.1000-0.5000-0.5000 (   676 PWs)   bands (ev):

   -70.6050 -68.7527 -36.5179 -36.5179 -36.4733 -34.6870 -34.6870 -34.6663
    13.4516  13.4746  14.9521  14.9521  16.9471  17.1402  17.3195  17.3195
    18.3836  19.2557  19.8105  19.8105

     occupation numbers 
     1.0000   1.0000   1.0000   1.0000   1.0000   1.0000   1.0000   1.0000
     1.0000   1.0000   1.0000   1.0000   1.0000   1.0000   1.0000   1.0000
     0.0000   0.0000   0.0000   0.0000

          k = 0.2000 0.2000 0.2000 (   690 PWs)   bands (ev):

   -70.6117 -68.7578 -36.5033 -36.5033 -36.4891 -34.6849 -34.6849 -34.6808
    11.4758  14.3694  14.3694  15.4674  15.4674  15.8674  17.7858  17.7858
    17.8351  18.3899  18.3899  25.1828

     occupation numbers 
     1.0000   1.0000   1.0000   1.0000   1.0000   1.0000   1.0000   1.0000
     1.0000   1.0000   1.0000   1.0000   1.0000   1.0000   0.7004   0.7004
     0.4318   0.0000   0.0000   0.0000

          k = 0.2000 0.2000 0.3000 (   683 PWs)   bands (ev):

   -70.6092 -68.7559 -36.5054 -36.4914 -36.4826 -34.6885 -34.6766 -34.6704
    12.2497  14.5570  14.5714  15.3572  15.3614  15.5779  17.6277  17.7800
    18.1204  18.3070  18.6238  23.1325

     occupation numbers 
     1.0000   1.0000   1.0000   1.0000   1.0000   1.0000   1.0000   1.0000
     1.0000   1.0000   1.0000   1.0000   1.0000   1.0000   1.0783   0.7317
     0.0002   0.0000   0.0000   0.0000

          k = 0.2000 0.2000 0.4000 (   678 PWs)   bands (ev):

   -70.6074 -68.7547 -36.5105 -36.4888 -36.4751 -34.6913 -34.6714 -34.6658
    13.1008  14.3432  14.6955  15.2559  15.4385  15.6800  17.4155  17.5987
    17.9755  18.6972  19.0346  21.2991

     occupation numbers 
     1.0000   1.0000   1.0000   1.0000   1.0000   1.0000   1.0000   1.0000
     1.0000   1.0000   1.0000   1.0000   1.0000   1.0000   1.0008   1.0613
     0.0309   0.0000   0.0000   0.0000

          k = 0.2000 0.2000-0.5000 (   668 PWs)   bands (ev):

   -70.6059 -68.7535 -36.5002 -36.4778 -36.4628 -34.6819 -34.6568 -34.6556
    13.8037  13.8796  14.8035  15.1546  15.4847  15.9324  17.3703  17.3960
    17.9931  18.7818  19.7061  20.2484

     occupation numbers 
     1.0000   1.0000   1.0000   1.0000   1.0000   1.0000   1.0000   1.0000
     1.0000   1.0000   1.0000   1.0000   1.0000   1.0000   1.0002   1.0004
     0.0193   0.0000   0.0000   0.0000

          k = 0.2000 0.3000 0.3000 (   678 PWs)   bands (ev):

   -70.6072 -68.7544 -36.5114 -36.4888 -36.4787 -34.6915 -34.6756 -34.6648
    12.9078  14.4699  15.0062  15.1770  15.2683  15.3018  17.4989  17.7442
    18.2865  18.7065  18.8723  23.2339

     occupation numbers 
     1.0000   1.0000   1.0000   1.0000   1.0000   1.0000   1.0000   1.0000
     1.0000   1.0000   1.0000   1.0000   1.0000   1.0000   1.0099   0.9025
     0.0000   0.0000   0.0000   0.0000

          k = 0.2000 0.3000 0.4000 (   678 PWs)   bands (ev):

   -70.6061 -68.7534 -36.5147 -36.4971 -36.4814 -34.6952 -34.6802 -34.6699
    13.5182  14.2506  15.0305  15.0804  15.2651  15.6753  17.3288  17.5567
    18.2863  18.8540  19.5332  21.8347

     occupation numbers 
     1.0000   1.0000   1.0000   1.0000   1.0000   1.0000   1.0000   1.0000
     1.0000   1.0000   1.0000   1.0000   1.0000   1.0000   1.0000   1.0336
     0.0000   0.0000   0.0000   0.0000

          k = 0.2000 0.3000-0.5000 (   670 PWs)   bands (ev):

   -70.6049 -68.7525 -36.5054 -36.4976 -36.4674 -34.6834 -34.6768 -34.6580
    13.9099  13.9837  15.0281  15.0465  15.3221  16.0541  17.2089  17.4850
    18.3181  18.9693  20.3558  20.6148

     occupation numbers 
     1.0000   1.0000   1.0000   1.0000   1.0000   1.0000   1.0000   1.0000
     1.0000   1.0000   1.0000   1.0000   1.0000   1.0000   1.0000   1.0069
     0.0000   0.0000   0.0000   0.0000

          k = 0.2000 0.4000 0.4000 (   680 PWs)   bands (ev):

   -70.6053 -68.7527 -36.5248 -36.5093 -36.4825 -34.7006 -34.6926 -34.6730
    13.7446  14.0223  14.9449  14.9798  15.8235  15.9038  17.2261  17.4088
    18.4511  19.0088  20.1890  21.7384

     occupation numbers 
     1.0000   1.0000   1.0000   1.0000   1.0000   1.0000   1.0000   1.0000
     1.0000   1.0000   1.0000   1.0000   1.0000   1.0000   1.0000   1.0007
     0.0000   0.0000   0.0000   0.0000

          k = 0.2000 0.4000-0.5000 (   678 PWs)   bands (ev):

   -70.6047 -68.7522 -36.5180 -36.5142 -36.4856 -34.6966 -34.6913 -34.6778
    13.8225  13.9241  14.9113  14.9342  15.9655  16.3711  17.1085  17.2825
    18.4824  19.1349  20.9075  20.9779

     occupation numbers 
     1.0000   1.0000   1.0000   1.0000   1.0000   1.0000   1.0000   1.0000
     1.0000   1.0000   1.0000   1.0000   1.0000   1.0000   1.0000   1.0000
     0.0000   0.0000   0.0000   0.0000

          k = 0.2000-0.5000-0.5000 (   680 PWs)   bands (ev):

   -70.6046 -68.7520 -36.5225 -36.5225 -36.4895 -34.6973 -34.6973 -34.6831
    13.7527  13.8571  14.8686  14.8686  16.5558  16.5558  16.9395  17.1215
    18.5394  19.2495  21.1585  21.1585

     occupation numbers 
     1.0000   1.0000   1.0000   1.0000   1.0000   1.0000   1.0000   1.0000
     1.0000   1.0000   1.0000   1.0000   1.0000   1.0000   1.0000   1.0000
     0.0000   0.0000   0.0000   0.0000

          k = 0.3000 0.3000 0.3000 (   672 PWs)   bands (ev):

   -70.6052 -68.7525 -36.4928 -36.4928 -36.4813 -34.6812 -34.6812 -34.6639
    13.5504  14.8560  14.9737  14.9737  15.1049  15.1049  17.5115  17.5115
    18.6343  18.6343  19.5320  24.5492

     occupation numbers 
     1.0000   1.0000   1.0000   1.0000   1.0000   1.0000   1.0000   1.0000
     1.0000   1.0000   1.0000   1.0000   1.0000   1.0000   1.0134   1.0134
     0.0000   0.0000   0.0000   0.0000

          k = 0.3000 0.3000 0.4000 (   680 PWs)   bands (ev):

   -70.6051 -68.7525 -36.5195 -36.5052 -36.4932 -34.7041 -34.6867 -34.6853
    14.0190  14.5680  14.8832  14.9887  15.0281  15.5304  17.3069  17.3291
    18.5944  18.8767  20.2864  22.8136

     occupation numbers 
     1.0000   1.0000   1.0000   1.0000   1.0000   1.0000   1.0000   1.0000
     1.0000   1.0000   1.0000   1.0000   1.0000   1.0000   1.0000   1.0000
     0.0000   0.0000   0.0000   0.0000

          k = 0.3000 0.3000-0.5000 (   674 PWs)   bands (ev):

   -70.6042 -68.7518 -36.5087 -36.5034 -36.4911 -34.6925 -34.6858 -34.6853
    14.1469  14.4838  14.8588  15.0143  15.0722  15.8562  17.1445  17.2795
    18.5929  19.0174  21.3371  21.4169

     occupation numbers 
     1.0000   1.0000   1.0000   1.0000   1.0000   1.0000   1.0000   1.0000
     1.0000   1.0000   1.0000   1.0000   1.0000   1.0000   1.0000   1.0000
     0.0000   0.0000   0.0000   0.0000

          k = 0.3000 0.4000 0.4000 (   671 PWs)   bands (ev):

   -70.6034 -68.7509 -36.5083 -36.5066 -36.4853 -34.6960 -34.6943 -34.6743
    14.2101  14.5985  14.8254  14.8723  15.4948  15.5814  17.2067  17.2107
    18.7732  19.0509  21.1953  23.1887

     occupation numbers 
     1.0000   1.0000   1.0000   1.0000   1.0000   1.0000   1.0000   1.0000
     1.0000   1.0000   1.0000   1.0000   1.0000   1.0000   1.0000   1.0000
     0.0000   0.0000   0.0000   0.0000

          k = 0.3000 0.4000-0.5000 (   668 PWs)   bands (ev):

   -70.6028 -68.7504 -36.5081 -36.5060 -36.4828 -34.6947 -34.6944 -34.6752
    14.2055  14.5636  14.7835  14.8494  15.6063  15.9282  17.0471  17.1770
    18.8080  19.1538  22.2294  22.2379

     occupation numbers 
     1.0000   1.0000   1.0000   1.0000   1.0000   1.0000   1.0000   1.0000
     1.0000   1.0000   1.0000   1.0000   1.0000   1.0000   1.0000   1.0000
     0.0000   0.0000   0.0000   0.0000

          k = 0.3000-0.5000-0.5000 (   668 PWs)   bands (ev):

   -70.6024 -68.7501 -36.5093 -36.5093 -36.4835 -34.6962 -34.6962 -34.6784
    14.1778  14.5317  14.7629  14.7629  15.9918  15.9918  16.9451  17.1281
    18.8678  19.2579  22.7039  22.7039

     occupation numbers 
     1.0000   1.0000   1.0000   1.0000   1.0000   1.0000   1.0000   1.0000
     1.0000   1.0000   1.0000   1.0000   1.0000   1.0000   1.0000   1.0000
     0.0000   0.0000   0.0000   0.0000

          k = 0.4000 0.4000 0.4000 (   672 PWs)   bands (ev):

   -70.6028 -68.7501 -36.5072 -36.5072 -36.5039 -34.7016 -34.7016 -34.6902
    14.4270  14.7340  14.7340  15.2099  15.3858  15.3858  17.0766  17.0766
    19.0321  19.0321  22.2616  24.8237

     occupation numbers 
     1.0000   1.0000   1.0000   1.0000   1.0000   1.0000   1.0000   1.0000
     1.0000   1.0000   1.0000   1.0000   1.0000   1.0000   1.0000   1.0000
     0.0000   0.0000   0.0000   0.0000

          k = 0.4000 0.4000-0.5000 (   674 PWs)   bands (ev):

   -70.6026 -68.7501 -36.5187 -36.5080 -36.5069 -34.7104 -34.7037 -34.6977
    14.4371  14.6899  14.6940  15.2435  15.3049  15.6549  16.9838  17.0396
    19.0423  19.1764  23.4627  23.4769

     occupation numbers 
     1.0000   1.0000   1.0000   1.0000   1.0000   1.0000   1.0000   1.0000
     1.0000   1.0000   1.0000   1.0000   1.0000   1.0000   1.0000   1.0000
     0.0000   0.0000   0.0000   0.0000

          k = 0.4000-0.5000-0.5000 (   676 PWs)   bands (ev):

   -70.6026 -68.7499 -36.5187 -36.5132 -36.5132 -34.7146 -34.7070 -34.7070
    14.5078  14.6639  14.6639  15.1518  15.5855  15.5855  16.9091  16.9572
    19.0646  19.2251  24.3673  24.3673

     occupation numbers 
     1.0000   1.0000   1.0000   1.0000   1.0000   1.0000   1.0000   1.0000
     1.0000   1.0000   1.0000   1.0000   1.0000   1.0000   1.0000   1.0000
     0.0000   0.0000   0.0000   0.0000

          k =-0.5000-0.5000-0.5000 (   672 PWs)   bands (ev):

   -70.6021 -68.7496 -36.5135 -36.5135 -36.5135 -34.7099 -34.7099 -34.7099
    14.6355  14.6355  14.6355  15.4561  15.4561  15.4561  16.9098  16.9098
    19.2267  19.2267  26.0931  26.0931

     occupation numbers 
     1.0000   1.0000   1.0000   1.0000   1.0000   1.0000   1.0000   1.0000
     1.0000   1.0000   1.0000   1.0000   1.0000   1.0000   1.0000   1.0000
     0.0000   0.0000   0.0000   0.0000

     the Fermi energy is    17.8412 ev

!    total energy              =    -658.05292129 Ry
     total all-electron energy =     -5090.645987 Ry
     estimated scf accuracy    <       0.00000008 Ry
     smearing contrib. (-TS)   =       0.00007448 Ry
     internal energy E=F+TS    =    -658.05299576 Ry

     The total energy is F=E-TS. E is the sum of the following terms:
     one-electron contribution =    -225.17214788 Ry
     hartree contribution      =     131.69749283 Ry
     xc contribution           =     -55.28937054 Ry
     ewald contribution        =    -343.77998639 Ry
     one-center paw contrib.   =    -165.50898378 Ry
      -> PAW hartree energy AE =     186.47081896 Ry
      -> PAW hartree energy PS =    -185.16416268 Ry
      -> PAW xc energy AE      =    -110.28055108 Ry
      -> PAW xc energy PS      =      26.21940164 Ry
      -> total E_H with PAW    =     133.00414911 Ry
      -> total E_XC with PAW   =    -139.35051998 Ry

     total magnetization       =    -0.00 Bohr mag/cell
     absolute magnetization    =     3.38 Bohr mag/cell

     convergence has been achieved in  17 iterations

     Writing all to output data dir ./tmp/Fe_AFM.save/ :
     XML data file, charge density, pseudopotentials, collected wavefunctions

     init_run     :      1.02s CPU      1.04s WALL (       1 calls)
     electrons    :     39.82s CPU     40.88s WALL (       1 calls)

     Called by init_run:
     wfcinit      :      0.47s CPU      0.44s WALL (       1 calls)
     wfcinit:atom :      0.01s CPU      0.01s WALL (     112 calls)
     wfcinit:wfcr :      0.43s CPU      0.40s WALL (     112 calls)
     potinit      :      0.26s CPU      0.33s WALL (       1 calls)
     hinit0       :      0.26s CPU      0.24s WALL (       1 calls)

     Called by electrons:
     c_bands      :     30.89s CPU     31.68s WALL (      17 calls)
     sum_band     :      3.37s CPU      3.26s WALL (      17 calls)
     v_of_rho     :      0.09s CPU      0.09s WALL (      18 calls)
     v_h          :      0.00s CPU      0.00s WALL (      18 calls)
     v_xc         :      0.09s CPU      0.08s WALL (      18 calls)
     newd         :      0.24s CPU      0.24s WALL (      18 calls)
     PAW_pot      :      5.44s CPU      5.88s WALL (      18 calls)
     mix_rho      :      0.02s CPU      0.02s WALL (      17 calls)

     Called by c_bands:
     init_us_2    :      0.29s CPU      0.28s WALL (    3920 calls)
     cegterg      :     30.04s CPU     30.86s WALL (    1904 calls)

     Called by sum_band:
     sum_band:wei :      0.03s CPU      0.03s WALL (      17 calls)
     sum_band:loo :      2.91s CPU      2.83s WALL (      17 calls)
     sum_band:buf :      0.02s CPU      0.02s WALL (    1904 calls)
     sum_band:ini :      0.12s CPU      0.12s WALL (    1904 calls)
     sum_band:cal :      0.66s CPU      0.64s WALL (    1904 calls)
     sum_band:bec :      0.04s CPU      0.04s WALL (    1904 calls)
     addusdens    :      0.37s CPU      0.35s WALL (      17 calls)
                                        0.00s GPU  (      17 calls)
     addusd:skk   :      0.00s CPU      0.00s WALL (      34 calls)
                                        0.00s GPU  (      34 calls)

     Called by *egterg:
     cdiaghg      :      4.45s CPU      4.29s WALL (    8025 calls)
     cegterg:over :      2.97s CPU      2.87s WALL (    6121 calls)
     cegterg:upda :      0.97s CPU      0.94s WALL (    6121 calls)
     cegterg:last :      2.36s CPU      2.28s WALL (    4239 calls)
     h_psi        :     15.75s CPU     17.07s WALL (    8137 calls)
     s_psi        :      1.46s CPU      1.41s WALL (    8137 calls)
     g_psi        :      0.11s CPU      0.10s WALL (    6121 calls)

     Called by h_psi:
     h_psi:calbec :      2.06s CPU      1.99s WALL (    8137 calls)
     vloc_psi     :     12.13s CPU     13.57s WALL (    8137 calls)
     add_vuspsi   :      1.47s CPU      1.42s WALL (    8137 calls)

     General routines
     calbec       :      2.70s CPU      2.62s WALL (   10041 calls)
     fft          :      0.16s CPU      0.15s WALL (     376 calls)
     ffts         :      0.00s CPU      0.00s WALL (      34 calls)
     fftw         :     12.91s CPU     14.33s WALL (  249768 calls)

     Parallel routines

     PAW routines
     PAW_pot      :      5.44s CPU      5.88s WALL (      18 calls)
     PAW_symme    :      0.04s CPU      0.03s WALL (      35 calls)

     PWSCF        :     41.22s CPU     42.34s WALL


   This run was terminated on:   8:33:17  10Jul2025            

=------------------------------------------------------------------------------=
   JOB DONE.
=------------------------------------------------------------------------------=
