
     Program PWSCF v.7.4.1 starts on 12Jul2025 at 16:15:13 

     This program is part of the open-source Quantum ESPRESSO suite
     for quantum simulation of materials; please cite
         "P. Giannozzi et al., J. Phys.:Condens. Matter 21 395502 (2009);
         "P. Giannozzi et al., J. Phys.:Condens. Matter 29 465901 (2017);
         "P. Giannozzi et al., J. Chem. Phys. 152 154105 (2020);
          URL http://www.quantum-espresso.org", 
     in publications or presentations arising from this work. More details at
     http://www.quantum-espresso.org/quote

     Parallel version (MPI), running on     4 processors

     MPI processes distributed on     1 nodes
     165 MiB available memory on the printing compute node when the environment starts

     Waiting for input...
     Reading input from standard input

     Current dimensions of program PWSCF are:
     Max number of different atomic species (ntypx) = 10
     Max number of k-points (npk) =  40000
     Max angular momentum in pseudopotentials (lmaxx) =  4
     file O.pbesol-n-kjpaw_psl.0.1.UPF: wavefunction(s)  2P renormalized
     Message from routine volume:
     axis vectors are left-handed
     Message from routine setup:
     using ibrav=0 with symmetry is DISCOURAGED, use correct ibrav instead

     R & G space division:  proc/nbgrp/npool/nimage =       4
     Subspace diagonalization in iterative solution of the eigenvalue problem:
     a serial algorithm will be used


     Parallelization info
     --------------------
     sticks:   dense  smooth     PW     G-vecs:    dense   smooth      PW
     Min         291     146     48                 4642     1635     317
     Max         292     147     49                 4643     1636     318
     Sum        1167     587    195                18569     6541    1269

     Using Slab Decomposition



     bravais-lattice index     =            0
     lattice parameter (alat)  =       8.0000  a.u.
     unit-cell volume          =     235.7543 (a.u.)^3
     number of atoms/cell      =            4
     number of atomic types    =            3
     number of electrons       =        46.00
     number of Kohn-Sham states=           28
     kinetic-energy cutoff     =      35.0000  Ry
     charge density cutoff     =     280.0000  Ry
     scf convergence threshold =      1.0E-08
     mixing beta               =       0.7000
     number of iterations used =            8  plain     mixing
     Exchange-correlation= SLA  PW   PSX  PSC
                           (   1   4  10   8   0   0   0)
     Hubbard projectors: ortho-atomic
     Hubbard parameters of DFT+U (Dudarev formulation) in eV:
     U(Co1-3d) =  6.3000
     U(Co2-3d) =  6.3000

     Internal variables: lda_plus_u =T, lda_plus_u_kind = 0

     celldm(1)=   8.000000  celldm(2)=   0.000000  celldm(3)=   0.000000
     celldm(4)=   0.000000  celldm(5)=   0.000000  celldm(6)=   0.000000

     crystal axes: (cart. coord. in units of alat)
               a(1) = (   0.570726   0.570726   1.031099 )  
               a(2) = (   0.570726   1.031099   0.570726 )  
               a(3) = (   1.031099   0.570726   0.570726 )  

     reciprocal axes: (cart. coord. in units 2 pi/alat)
               b(1) = ( -0.570621 -0.570621  1.601531 )  
               b(2) = ( -0.570621  1.601531 -0.570621 )  
               b(3) = (  1.601531 -0.570621 -0.570621 )  


     PseudoPot. # 1 for Co read from file:
     ./co_pbesol_v1.2.uspp.F.UPF
     MD5 check sum: 3b4cd4e7cc7df4da9fdede0fd33e2193
     Pseudo is Ultrasoft + core correction, Zval = 17.0
     Generated by new atomic code, or converted to UPF format
     Using radial grid of  863 points,  6 beta functions with: 
                l(1) =   0
                l(2) =   0
                l(3) =   1
                l(4) =   1
                l(5) =   2
                l(6) =   2
     Q(r) pseudized with  8 coefficients,  rinner =    1.200   1.200   1.200
                                                       1.200   1.200

     PseudoPot. # 2 for Co read from file:
     ./co_pbesol_v1.2.uspp.F.UPF
     MD5 check sum: 3b4cd4e7cc7df4da9fdede0fd33e2193
     Pseudo is Ultrasoft + core correction, Zval = 17.0
     Generated by new atomic code, or converted to UPF format
     Using radial grid of  863 points,  6 beta functions with: 
                l(1) =   0
                l(2) =   0
                l(3) =   1
                l(4) =   1
                l(5) =   2
                l(6) =   2
     Q(r) pseudized with  8 coefficients,  rinner =    1.200   1.200   1.200
                                                       1.200   1.200

     PseudoPot. # 3 for O  read from file:
     ./O.pbesol-n-kjpaw_psl.0.1.UPF
     MD5 check sum: 126339daddaa87477ab44acfa0b5aa00
     Pseudo is Projector augmented-wave + core cor, Zval =  6.0
     Generated using "atomic" code by A. Dal Corso  v.6.0 svn rev. 13079
     Shape of augmentation charge: BESSEL
     Using radial grid of 1095 points,  4 beta functions with: 
                l(1) =   0
                l(2) =   0
                l(3) =   1
                l(4) =   1
     Q(r) pseudized with 0 coefficients 


     atomic species   valence    mass     pseudopotential
     Co1              17.00    58.93319     Co( 1.00)
     Co2              17.00    58.93319     Co( 1.00)
     O                 6.00    15.99900     O ( 1.00)

     Starting magnetic structure 
     atomic species   magnetization
     Co1             0.500
     Co2            -0.500
     O               0.000

     12 Sym. Ops., with inversion, found


                                    s                        frac. trans.

      isym =  1     identity                                     

 cryst.   s( 1) = (     1          0          0      )
                  (     0          1          0      )
                  (     0          0          1      )

 cart.    s( 1) = (  1.0000000  0.0000000  0.0000000 )
                  (  0.0000000  1.0000000  0.0000000 )
                  (  0.0000000  0.0000000  1.0000000 )


      isym =  2     180 deg rotation - cart. axis [1,-1,0]       

 cryst.   s( 2) = (    -1          0          0      )
                  (     0          0         -1      )
                  (     0         -1          0      )

 cart.    s( 2) = ( -0.0000000 -1.0000000 -0.0000000 )
                  ( -1.0000000 -0.0000000 -0.0000000 )
                  ( -0.0000000 -0.0000000 -1.0000000 )


      isym =  3     180 deg rotation - cart. axis [-1,0,1]       

 cryst.   s( 3) = (     0          0         -1      )
                  (     0         -1          0      )
                  (    -1          0          0      )

 cart.    s( 3) = ( -0.0000000 -0.0000000 -1.0000000 )
                  ( -0.0000000 -1.0000000 -0.0000000 )
                  ( -1.0000000 -0.0000000 -0.0000000 )


      isym =  4     180 deg rotation - cart. axis [0,1,-1]       

 cryst.   s( 4) = (     0         -1          0      )
                  (    -1          0          0      )
                  (     0          0         -1      )

 cart.    s( 4) = ( -1.0000000 -0.0000000 -0.0000000 )
                  ( -0.0000000 -0.0000000 -1.0000000 )
                  ( -0.0000000 -1.0000000 -0.0000000 )


      isym =  5     120 deg rotation - cart. axis [-1,-1,-1]     

 cryst.   s( 5) = (     0          1          0      )
                  (     0          0          1      )
                  (     1          0          0      )

 cart.    s( 5) = (  0.0000000  1.0000000  0.0000000 )
                  (  0.0000000  0.0000000  1.0000000 )
                  (  1.0000000  0.0000000  0.0000000 )


      isym =  6     120 deg rotation - cart. axis [1,1,1]        

 cryst.   s( 6) = (     0          0          1      )
                  (     1          0          0      )
                  (     0          1          0      )

 cart.    s( 6) = (  0.0000000  0.0000000  1.0000000 )
                  (  1.0000000  0.0000000  0.0000000 )
                  (  0.0000000  1.0000000  0.0000000 )


      isym =  7     inversion                                    

 cryst.   s( 7) = (    -1          0          0      )
                  (     0         -1          0      )
                  (     0          0         -1      )

 cart.    s( 7) = ( -1.0000000 -0.0000000 -0.0000000 )
                  ( -0.0000000 -1.0000000 -0.0000000 )
                  ( -0.0000000 -0.0000000 -1.0000000 )


      isym =  8     inv. 180 deg rotation - cart. axis [1,-1,0]  

 cryst.   s( 8) = (     1          0          0      )
                  (     0          0          1      )
                  (     0          1          0      )

 cart.    s( 8) = (  0.0000000  1.0000000  0.0000000 )
                  (  1.0000000  0.0000000  0.0000000 )
                  (  0.0000000  0.0000000  1.0000000 )


      isym =  9     inv. 180 deg rotation - cart. axis [-1,0,1]  

 cryst.   s( 9) = (     0          0          1      )
                  (     0          1          0      )
                  (     1          0          0      )

 cart.    s( 9) = (  0.0000000  0.0000000  1.0000000 )
                  (  0.0000000  1.0000000  0.0000000 )
                  (  1.0000000  0.0000000  0.0000000 )


      isym = 10     inv. 180 deg rotation - cart. axis [0,1,-1]  

 cryst.   s(10) = (     0          1          0      )
                  (     1          0          0      )
                  (     0          0          1      )

 cart.    s(10) = (  1.0000000  0.0000000  0.0000000 )
                  (  0.0000000  0.0000000  1.0000000 )
                  (  0.0000000  1.0000000  0.0000000 )


      isym = 11     inv. 120 deg rotation - cart. axis [-1,-1,-1]

 cryst.   s(11) = (     0         -1          0      )
                  (     0          0         -1      )
                  (    -1          0          0      )

 cart.    s(11) = ( -0.0000000 -1.0000000 -0.0000000 )
                  ( -0.0000000 -0.0000000 -1.0000000 )
                  ( -1.0000000 -0.0000000 -0.0000000 )


      isym = 12     inv. 120 deg rotation - cart. axis [1,1,1]   

 cryst.   s(12) = (     0          0         -1      )
                  (    -1          0          0      )
                  (     0         -1          0      )

 cart.    s(12) = ( -0.0000000 -0.0000000 -1.0000000 )
                  ( -1.0000000 -0.0000000 -0.0000000 )
                  ( -0.0000000 -1.0000000 -0.0000000 )


   Cartesian axes

     site n.     atom                  positions (alat units)
         1        Co1    tau(   1) = (   0.0000000   0.0000000   0.0000000  )
         2        Co2    tau(   2) = (   1.0862757   1.0862757   1.0862757  )
         3        O      tau(   3) = (   0.5431378   0.5431378   0.5431378  )
         4        O      tau(   4) = (   1.6294135   1.6294135   1.6294135  )

   Crystallographic axes

     site n.     atom                  positions (cryst. coord.)
         1        Co1    tau(   1) = (  0.0000000  0.0000000  0.0000000  )
         2        Co2    tau(   2) = (  0.5000000  0.5000000  0.5000000  )
         3        O      tau(   3) = (  0.2500000  0.2500000  0.2500000  )
         4        O      tau(   4) = (  0.7500000  0.7500000  0.7500000  )

     number of k points=     6  Marzari-Vanderbilt smearing, width (Ry)=  0.0200
                       cart. coord. in units 2pi/alat
        k(    1) = (   0.0000000   0.0000000   0.0000000), wk =   0.0370370
        k(    2) = (   0.5338435  -0.1902071  -0.1902071), wk =   0.2222222
        k(    3) = (   0.3436365   0.3436365  -0.3804141), wk =   0.2222222
        k(    4) = (  -0.7240506   0.7240506   0.0000000), wk =   0.2222222
        k(    5) = (   0.1534294   0.1534294   0.1534294), wk =   0.0740741
        k(    6) = (  -0.9142576   0.5338435   0.5338435), wk =   0.2222222

                       cryst. coord.
        k(    1) = (   0.0000000   0.0000000   0.0000000), wk =   0.0370370
        k(    2) = (   0.0000000   0.0000000   0.3333333), wk =   0.2222222
        k(    3) = (   0.0000000   0.3333333   0.3333333), wk =   0.2222222
        k(    4) = (  -0.0000000   0.3333333  -0.3333333), wk =   0.2222222
        k(    5) = (   0.3333333   0.3333333   0.3333333), wk =   0.0740741
        k(    6) = (   0.3333333   0.3333333  -0.3333333), wk =   0.2222222

     Dense  grid:    18569 G-vectors     FFT dimensions: (  60,  60,  60)

     Smooth grid:     6541 G-vectors     FFT dimensions: (  40,  40,  40)

     Dynamical RAM for                 wfc:       0.09 MB

     Dynamical RAM for     wfc (w. buffer):       1.14 MB

     Dynamical RAM for             U proj.:       0.03 MB

     Dynamical RAM for  U proj. (w. buff.):       0.41 MB

     Dynamical RAM for           str. fact:       0.21 MB

     Dynamical RAM for           local pot:       0.00 MB

     Dynamical RAM for          nlocal pot:       0.16 MB

     Dynamical RAM for                qrad:       4.03 MB

     Dynamical RAM for          rho,v,vnew:       2.90 MB

     Dynamical RAM for               rhoin:       0.97 MB

     Dynamical RAM for            rho*nmix:       2.27 MB

     Dynamical RAM for           G-vectors:       0.28 MB

     Dynamical RAM for          h,s,v(r/c):       0.14 MB

     Dynamical RAM for          <psi|beta>:       0.02 MB

     Dynamical RAM for                 psi:       0.18 MB

     Dynamical RAM for                hpsi:       0.18 MB

     Dynamical RAM for                spsi:       0.18 MB

     Dynamical RAM for      wfcinit/wfcrot:       0.19 MB

     Dynamical RAM for           addusdens:      13.39 MB

     Estimated static dynamical RAM per process >      12.86 MB

     Estimated max dynamical RAM per process >      28.51 MB

     Estimated total dynamical RAM >     114.05 MB

     Check: negative core charge=   -0.000041
     Generating pointlists ...
     new r_m :   0.2019 (alat units)  1.6154 (a.u.) for type    1
     new r_m :   0.2019 (alat units)  1.6154 (a.u.) for type    2
     new r_m :   0.2019 (alat units)  1.6154 (a.u.) for type    3

     Initial potential from superposition of free atoms

     starting charge      44.0000, renormalised to      46.0000

     HUBBARD ENERGY =    0.5556  (Ry)

     STARTING HUBBARD OCCUPATIONS:

     =================== HUBBARD OCCUPATIONS ===================
     ------------------------ ATOM    1 ------------------------
     Tr[ns(  1)] (up, down, total) =   5.00000  2.00000  7.00000
     Atomic magnetic moment for atom   1 =   3.00000
     SPIN  1
     eigenvalues:
       1.000  1.000  1.000  1.000  1.000
     eigenvectors (columns):
       1.000  0.000  0.000  0.000  0.000
       0.000  1.000  0.000  0.000  0.000
       0.000  0.000  1.000  0.000  0.000
       0.000  0.000  0.000  1.000  0.000
       0.000  0.000  0.000  0.000  1.000
     occupation matrix ns (before diag.):
       1.000  0.000  0.000  0.000  0.000
       0.000  1.000  0.000  0.000  0.000
       0.000  0.000  1.000  0.000  0.000
       0.000  0.000  0.000  1.000  0.000
       0.000  0.000  0.000  0.000  1.000
     SPIN  2
     eigenvalues:
       0.400  0.400  0.400  0.400  0.400
     eigenvectors (columns):
       1.000  0.000  0.000  0.000  0.000
       0.000  1.000  0.000  0.000  0.000
       0.000  0.000  1.000  0.000  0.000
       0.000  0.000  0.000  1.000  0.000
       0.000  0.000  0.000  0.000  1.000
     occupation matrix ns (before diag.):
       0.400  0.000  0.000  0.000  0.000
       0.000  0.400  0.000  0.000  0.000
       0.000  0.000  0.400  0.000  0.000
       0.000  0.000  0.000  0.400  0.000
       0.000  0.000  0.000  0.000  0.400
     ------------------------ ATOM    2 ------------------------
     Tr[ns(  2)] (up, down, total) =   2.00000  5.00000  7.00000
     Atomic magnetic moment for atom   2 =  -3.00000
     SPIN  1
     eigenvalues:
       0.400  0.400  0.400  0.400  0.400
     eigenvectors (columns):
       1.000  0.000  0.000  0.000  0.000
       0.000  1.000  0.000  0.000  0.000
       0.000  0.000  1.000  0.000  0.000
       0.000  0.000  0.000  1.000  0.000
       0.000  0.000  0.000  0.000  1.000
     occupation matrix ns (before diag.):
       0.400  0.000  0.000  0.000  0.000
       0.000  0.400  0.000  0.000  0.000
       0.000  0.000  0.400  0.000  0.000
       0.000  0.000  0.000  0.400  0.000
       0.000  0.000  0.000  0.000  0.400
     SPIN  2
     eigenvalues:
       1.000  1.000  1.000  1.000  1.000
     eigenvectors (columns):
       1.000  0.000  0.000  0.000  0.000
       0.000  1.000  0.000  0.000  0.000
       0.000  0.000  1.000  0.000  0.000
       0.000  0.000  0.000  1.000  0.000
       0.000  0.000  0.000  0.000  1.000
     occupation matrix ns (before diag.):
       1.000  0.000  0.000  0.000  0.000
       0.000  1.000  0.000  0.000  0.000
       0.000  0.000  1.000  0.000  0.000
       0.000  0.000  0.000  1.000  0.000
       0.000  0.000  0.000  0.000  1.000

     Number of occupied Hubbard levels =   14.0000

     Atomic wfc used for Hubbard projectors are orthogonalized

     Starting wfcs are   34 randomized atomic wfcs
     Checking if some PAW data can be deallocated... 
       PAW data deallocated on    2 nodes for type:  3

     total cpu time spent up to now is        1.7 secs

     Self-consistent Calculation

     iteration #  1     ecut=    35.00 Ry     beta= 0.70
     Davidson diagonalization with overlap

---- Real-time Memory Report at c_bands before calling an iterative solver
            67 MiB given to the printing process from OS
             0 MiB allocation reported by mallinfo(arena+hblkhd)
            96 MiB available memory on the node where the printing process lives
------------------
     ethr =  1.00E-02,  avg # of iterations =  3.0

     =================== HUBBARD OCCUPATIONS ===================
     ------------------------ ATOM    1 ------------------------
     Tr[ns(  1)] (up, down, total) =   4.85053  0.66686  5.51739
     Atomic magnetic moment for atom   1 =   4.18367
     SPIN  1
     eigenvalues:
       0.956  0.956  0.968  0.985  0.985
     eigenvectors (columns):
       0.142  0.028  0.000 -0.643 -0.752
       0.530 -0.610  0.577 -0.039  0.112
       0.263  0.764  0.577  0.116 -0.022
       0.028 -0.142 -0.000  0.752 -0.643
       0.793  0.154 -0.577  0.077  0.090
     occupation matrix ns (before diag.):
       0.984 -0.002 -0.002  0.000 -0.003
      -0.002  0.961  0.004 -0.003 -0.004
      -0.002  0.004  0.961  0.003 -0.004
       0.000 -0.003  0.003  0.984 -0.000
      -0.003 -0.004 -0.004 -0.000  0.961
     SPIN  2
     eigenvalues:
       0.050  0.050  0.169  0.199  0.199
     eigenvectors (columns):
      -0.579  0.801 -0.000 -0.150 -0.027
      -0.051 -0.114  0.577 -0.519  0.618
       0.124  0.013  0.577 -0.275 -0.759
       0.801  0.579  0.000 -0.027  0.150
       0.073 -0.101 -0.577 -0.795 -0.141
     occupation matrix ns (before diag.):
       0.053  0.009  0.009 -0.000  0.018
       0.009  0.187 -0.009  0.016  0.009
       0.009 -0.009  0.187 -0.016  0.009
      -0.000  0.016 -0.016  0.053 -0.000
       0.018  0.009  0.009 -0.000  0.187
     ------------------------ ATOM    2 ------------------------
     Tr[ns(  2)] (up, down, total) =   0.66785  4.85035  5.51820
     Atomic magnetic moment for atom   2 =  -4.18250
     SPIN  1
     eigenvalues:
       0.049  0.049  0.169  0.200  0.200
     eigenvectors (columns):
      -0.541  0.827 -0.000 -0.151 -0.028
      -0.057 -0.112  0.577 -0.522  0.615
       0.125  0.007  0.577 -0.271 -0.760
       0.827  0.541  0.000 -0.028  0.151
       0.069 -0.105 -0.577 -0.794 -0.145
     occupation matrix ns (before diag.):
       0.053  0.009  0.009 -0.000  0.019
       0.009  0.187 -0.009  0.016  0.009
       0.009 -0.009  0.187 -0.016  0.009
      -0.000  0.016 -0.016  0.053 -0.000
       0.019  0.009  0.009 -0.000  0.187
     SPIN  2
     eigenvalues:
       0.956  0.956  0.968  0.985  0.985
     eigenvectors (columns):
       0.142  0.029  0.000 -0.650 -0.746
       0.534 -0.606  0.577 -0.038  0.112
       0.258  0.766  0.577  0.116 -0.023
       0.029 -0.142 -0.000  0.746 -0.650
       0.792  0.160 -0.577  0.078  0.089
     occupation matrix ns (before diag.):
       0.984 -0.002 -0.002  0.000 -0.003
      -0.002  0.961  0.004 -0.003 -0.004
      -0.002  0.004  0.961  0.003 -0.004
       0.000 -0.003  0.003  0.984 -0.000
      -0.003 -0.004 -0.004 -0.000  0.961

     Number of occupied Hubbard levels =   11.0356

     HUBBARD ENERGY =    0.3234  (Ry)

     total cpu time spent up to now is        2.9 secs

     total energy              =    -671.19545697 Ry
     estimated scf accuracy    <      12.32525003 Ry

     total magnetization       =    -0.00 Bohr mag/cell
     absolute magnetization    =     8.70 Bohr mag/cell

     iteration #  2     ecut=    35.00 Ry     beta= 0.70
     Davidson diagonalization with overlap

---- Real-time Memory Report at c_bands before calling an iterative solver
            67 MiB given to the printing process from OS
             0 MiB allocation reported by mallinfo(arena+hblkhd)
           125 MiB available memory on the node where the printing process lives
------------------
     ethr =  1.00E-02,  avg # of iterations =  3.2

     =================== HUBBARD OCCUPATIONS ===================
     ------------------------ ATOM    1 ------------------------
     Tr[ns(  1)] (up, down, total) =   4.87096  4.88452  9.75549
     Atomic magnetic moment for atom   1 =  -0.01356
     SPIN  1
     eigenvalues:
       0.973  0.973  0.973  0.976  0.976
     eigenvectors (columns):
       0.000 -0.229 -0.062 -0.538  0.809
       0.577  0.205  0.766  0.086  0.173
       0.577  0.561 -0.560 -0.193 -0.012
      -0.000  0.062 -0.229  0.809  0.538
      -0.577  0.766  0.206 -0.107  0.161
     occupation matrix ns (before diag.):
       0.976  0.000  0.000  0.000  0.001
       0.000  0.973 -0.000  0.000  0.000
       0.000 -0.000  0.973 -0.000  0.000
       0.000  0.000 -0.000  0.976 -0.000
       0.001  0.000  0.000 -0.000  0.973
     SPIN  2
     eigenvalues:
       0.975  0.975  0.977  0.979  0.979
     eigenvectors (columns):
      -0.572  0.645  0.000  0.478 -0.170
      -0.131 -0.393 -0.577  0.536  0.456
       0.406  0.083 -0.577  0.127 -0.692
       0.645  0.572 -0.000  0.170  0.478
       0.275 -0.310  0.577  0.663 -0.236
     occupation matrix ns (before diag.):
       0.976  0.001  0.001  0.000  0.001
       0.001  0.977 -0.000  0.001  0.000
       0.001 -0.000  0.977 -0.001  0.000
       0.000  0.001 -0.001  0.976 -0.000
       0.001  0.000  0.000 -0.000  0.977
     ------------------------ ATOM    2 ------------------------
     Tr[ns(  2)] (up, down, total) =   4.88461  4.87101  9.75562
     Atomic magnetic moment for atom   2 =   0.01361
     SPIN  1
     eigenvalues:
       0.975  0.975  0.977  0.979  0.979
     eigenvectors (columns):
      -0.570  0.647  0.000  0.474 -0.179
      -0.132 -0.392 -0.577  0.545  0.445
       0.406  0.082 -0.577  0.113 -0.695
       0.647  0.570 -0.000  0.179  0.474
       0.274 -0.311  0.577  0.658 -0.249
     occupation matrix ns (before diag.):
       0.976  0.001  0.001  0.000  0.001
       0.001  0.977 -0.000  0.001  0.000
       0.001 -0.000  0.977 -0.001  0.000
       0.000  0.001 -0.001  0.976 -0.000
       0.001  0.000  0.000 -0.000  0.977
     SPIN  2
     eigenvalues:
       0.973  0.973  0.973  0.976  0.976
     eigenvectors (columns):
      -0.000 -0.232  0.051  0.661  0.712
      -0.577  0.238 -0.756 -0.057  0.185
      -0.577  0.536  0.585  0.189 -0.043
       0.000  0.051  0.232 -0.712  0.661
       0.577  0.774 -0.172  0.132  0.142
     occupation matrix ns (before diag.):
       0.976  0.000  0.000  0.000  0.001
       0.000  0.973 -0.000  0.000  0.000
       0.000 -0.000  0.973 -0.000  0.000
       0.000  0.000 -0.000  0.976 -0.000
       0.001  0.000  0.000 -0.000  0.973

     Number of occupied Hubbard levels =   19.5111

     HUBBARD ENERGY =    0.5517  (Ry)

     total cpu time spent up to now is        4.4 secs

     total energy              =    -672.16177781 Ry
     estimated scf accuracy    <      59.45450954 Ry

     total magnetization       =    -0.00 Bohr mag/cell
     absolute magnetization    =     0.56 Bohr mag/cell

     iteration #  3     ecut=    35.00 Ry     beta= 0.70
     Davidson diagonalization with overlap

---- Real-time Memory Report at c_bands before calling an iterative solver
            67 MiB given to the printing process from OS
             0 MiB allocation reported by mallinfo(arena+hblkhd)
           125 MiB available memory on the node where the printing process lives
------------------
     ethr =  1.00E-02,  avg # of iterations =  2.8

     =================== HUBBARD OCCUPATIONS ===================
     ------------------------ ATOM    1 ------------------------
     Tr[ns(  1)] (up, down, total) =   4.97859  2.23729  7.21588
     Atomic magnetic moment for atom   1 =   2.74130
     SPIN  1
     eigenvalues:
       0.994  0.994  0.996  0.997  0.997
     eigenvectors (columns):
       0.672 -0.711  0.000  0.199 -0.045
      -0.048 -0.160  0.577 -0.236  0.764
       0.162  0.039  0.577 -0.543 -0.586
      -0.711 -0.672 -0.000 -0.045 -0.199
       0.114 -0.121 -0.577 -0.779  0.177
     occupation matrix ns (before diag.):
       0.995 -0.000 -0.000  0.000 -0.000
      -0.000  0.997 -0.000 -0.000  0.000
      -0.000 -0.000  0.997  0.000  0.000
       0.000 -0.000  0.000  0.995 -0.000
      -0.000  0.000  0.000 -0.000  0.997
     SPIN  2
     eigenvalues:
       0.137  0.137  0.550  0.706  0.706
     eigenvectors (columns):
       0.655  0.751 -0.000 -0.086 -0.009
       0.023 -0.067  0.577 -0.480  0.656
      -0.069  0.014  0.577 -0.328 -0.744
      -0.751  0.655  0.000 -0.009  0.086
      -0.046 -0.053 -0.577 -0.809 -0.088
     occupation matrix ns (before diag.):
       0.142  0.020  0.020  0.000  0.040
       0.020  0.651 -0.050  0.035  0.050
       0.020 -0.050  0.651 -0.035  0.050
       0.000  0.035 -0.035  0.142 -0.000
       0.040  0.050  0.050 -0.000  0.651
     ------------------------ ATOM    2 ------------------------
     Tr[ns(  2)] (up, down, total) =   2.24008  4.97867  7.21875
     Atomic magnetic moment for atom   2 =  -2.73858
     SPIN  1
     eigenvalues:
       0.137  0.137  0.552  0.707  0.707
     eigenvectors (columns):
       0.548  0.832 -0.000 -0.086 -0.011
       0.032 -0.063  0.577 -0.496  0.644
      -0.071  0.004  0.577 -0.310 -0.752
      -0.832  0.548  0.000 -0.011  0.086
      -0.039 -0.059 -0.577 -0.806 -0.108
     occupation matrix ns (before diag.):
       0.142  0.020  0.020  0.000  0.040
       0.020  0.652 -0.050  0.035  0.050
       0.020 -0.050  0.652 -0.035  0.050
       0.000  0.035 -0.035  0.142 -0.000
       0.040  0.050  0.050 -0.000  0.652
     SPIN  2
     eigenvalues:
       0.994  0.994  0.996  0.997  0.997
     eigenvectors (columns):
       0.654 -0.730  0.000  0.196 -0.039
      -0.051 -0.155  0.577 -0.256  0.758
       0.160  0.033  0.577 -0.529 -0.600
      -0.730 -0.654  0.000 -0.039 -0.196
       0.109 -0.121 -0.577 -0.784  0.158
     occupation matrix ns (before diag.):
       0.995 -0.000 -0.000  0.000 -0.000
      -0.000  0.997 -0.000 -0.000  0.000
      -0.000 -0.000  0.997  0.000  0.000
       0.000 -0.000  0.000  0.995 -0.000
      -0.000  0.000  0.000 -0.000  0.997

     Number of occupied Hubbard levels =   14.4346

     HUBBARD ENERGY =    0.4938  (Ry)

     total cpu time spent up to now is        5.7 secs

     total energy              =    -678.15693508 Ry
     estimated scf accuracy    <       0.43500769 Ry

     total magnetization       =     0.00 Bohr mag/cell
     absolute magnetization    =     5.78 Bohr mag/cell

     iteration #  4     ecut=    35.00 Ry     beta= 0.70
     Davidson diagonalization with overlap

---- Real-time Memory Report at c_bands before calling an iterative solver
            68 MiB given to the printing process from OS
             0 MiB allocation reported by mallinfo(arena+hblkhd)
            85 MiB available memory on the node where the printing process lives
------------------
     ethr =  9.46E-04,  avg # of iterations =  2.2

     =================== HUBBARD OCCUPATIONS ===================
     ------------------------ ATOM    1 ------------------------
     Tr[ns(  1)] (up, down, total) =   4.96474  2.43688  7.40162
     Atomic magnetic moment for atom   1 =   2.52786
     SPIN  1
     eigenvalues:
       0.991  0.991  0.994  0.995  0.995
     eigenvectors (columns):
      -0.689 -0.721 -0.000 -0.078  0.004
       0.018 -0.062  0.577  0.368 -0.726
      -0.062  0.015  0.577  0.445  0.681
       0.721 -0.689  0.000  0.004  0.078
      -0.044 -0.046 -0.577  0.813 -0.045
     occupation matrix ns (before diag.):
       0.991 -0.000 -0.000  0.000 -0.000
      -0.000  0.994 -0.000 -0.000  0.000
      -0.000 -0.000  0.994  0.000  0.000
       0.000 -0.000  0.000  0.991 -0.000
      -0.000  0.000  0.000 -0.000  0.994
     SPIN  2
     eigenvalues:
       0.167  0.167  0.346  0.879  0.879
     eigenvectors (columns):
       0.668  0.741 -0.000 -0.065 -0.010
       0.016 -0.051  0.577 -0.508  0.637
      -0.052  0.011  0.577 -0.298 -0.758
      -0.741  0.668  0.000 -0.010  0.065
      -0.036 -0.040 -0.577 -0.806 -0.121
     occupation matrix ns (before diag.):
       0.170  0.019  0.019  0.000  0.038
       0.019  0.699 -0.176  0.033  0.176
       0.019 -0.176  0.699 -0.033  0.176
       0.000  0.033 -0.033  0.170 -0.000
       0.038  0.176  0.176 -0.000  0.699
     ------------------------ ATOM    2 ------------------------
     Tr[ns(  2)] (up, down, total) =   2.36419  4.96463  7.32882
     Atomic magnetic moment for atom   2 =  -2.60044
     SPIN  1
     eigenvalues:
       0.164  0.164  0.333  0.851  0.851
     eigenvectors (columns):
       0.637 -0.768 -0.000 -0.061  0.007
       0.017  0.047  0.577 -0.490 -0.651
      -0.050 -0.008  0.577 -0.319  0.750
      -0.768 -0.637  0.000 -0.007 -0.061
      -0.032  0.039 -0.577 -0.809  0.099
     occupation matrix ns (before diag.):
       0.167  0.017  0.017  0.000  0.035
       0.017  0.677 -0.172  0.030  0.172
       0.017 -0.172  0.677 -0.030  0.172
       0.000  0.030 -0.030  0.167 -0.000
       0.035  0.172  0.172 -0.000  0.677
     SPIN  2
     eigenvalues:
       0.991  0.991  0.994  0.995  0.995
     eigenvectors (columns):
       0.696  0.713 -0.000 -0.088  0.003
      -0.020  0.069  0.577  0.385 -0.717
       0.070 -0.018  0.577  0.428  0.691
      -0.713  0.696  0.000  0.003  0.088
       0.050  0.052 -0.577  0.813 -0.025
     occupation matrix ns (before diag.):
       0.991 -0.000 -0.000  0.000 -0.000
      -0.000  0.994 -0.000 -0.000  0.000
      -0.000 -0.000  0.994  0.000  0.000
       0.000 -0.000  0.000  0.991 -0.000
      -0.000  0.000  0.000 -0.000  0.994

     Number of occupied Hubbard levels =   14.7304

     HUBBARD ENERGY =    0.4020  (Ry)

     total cpu time spent up to now is        6.8 secs

     total energy              =    -678.28749425 Ry
     estimated scf accuracy    <       0.24004789 Ry

     total magnetization       =    -0.08 Bohr mag/cell
     absolute magnetization    =     5.42 Bohr mag/cell

     iteration #  5     ecut=    35.00 Ry     beta= 0.70
     Davidson diagonalization with overlap

---- Real-time Memory Report at c_bands before calling an iterative solver
            68 MiB given to the printing process from OS
             0 MiB allocation reported by mallinfo(arena+hblkhd)
           127 MiB available memory on the node where the printing process lives
------------------
     ethr =  5.22E-04,  avg # of iterations =  2.0

     =================== HUBBARD OCCUPATIONS ===================
     ------------------------ ATOM    1 ------------------------
     Tr[ns(  1)] (up, down, total) =   4.96130  2.22421  7.18551
     Atomic magnetic moment for atom   1 =   2.73709
     SPIN  1
     eigenvalues:
       0.990  0.990  0.993  0.994  0.994
     eigenvectors (columns):
      -0.878  0.224 -0.000 -0.362 -0.218
      -0.241 -0.247 -0.577 -0.015  0.740
      -0.093  0.332 -0.577  0.648 -0.357
      -0.224 -0.878  0.000  0.218 -0.362
      -0.334  0.085  0.577  0.633  0.383
     occupation matrix ns (before diag.):
       0.991 -0.001 -0.001  0.000 -0.001
      -0.001  0.993 -0.000 -0.001  0.000
      -0.001 -0.000  0.993  0.001  0.000
       0.000 -0.001  0.001  0.991 -0.000
      -0.001  0.000  0.000 -0.000  0.993
     SPIN  2
     eigenvalues:
       0.098  0.124  0.124  0.939  0.939
     eigenvectors (columns):
       0.000 -0.535 -0.844 -0.043  0.004
       0.577 -0.016  0.031 -0.478 -0.661
       0.577  0.035 -0.001 -0.333  0.745
      -0.000  0.844 -0.535 -0.004 -0.043
      -0.577  0.019  0.030 -0.811  0.084
     occupation matrix ns (before diag.):
       0.126  0.014  0.014  0.000  0.029
       0.014  0.658 -0.280  0.025  0.280
       0.014 -0.280  0.658 -0.025  0.280
       0.000  0.025 -0.025  0.126 -0.000
       0.029  0.280  0.280 -0.000  0.658
     ------------------------ ATOM    2 ------------------------
     Tr[ns(  2)] (up, down, total) =   2.41269  4.96972  7.38241
     Atomic magnetic moment for atom   2 =  -2.55704
     SPIN  1
     eigenvalues:
       0.153  0.153  0.167  0.970  0.970
     eigenvectors (columns):
       0.445  0.894 -0.000 -0.048 -0.005
       0.022 -0.033  0.577 -0.482  0.658
      -0.039 -0.002  0.577 -0.329 -0.746
      -0.894  0.445  0.000 -0.005  0.048
      -0.018 -0.035 -0.577 -0.811 -0.088
     occupation matrix ns (before diag.):
       0.155  0.016  0.016  0.000  0.032
       0.016  0.701 -0.267  0.028  0.267
       0.016 -0.267  0.701 -0.028  0.267
       0.000  0.028 -0.028  0.155 -0.000
       0.032  0.267  0.267 -0.000  0.701
     SPIN  2
     eigenvalues:
       0.993  0.993  0.994  0.995  0.995
     eigenvectors (columns):
      -0.919  0.023 -0.000 -0.358 -0.161
      -0.167 -0.274 -0.577  0.076  0.747
      -0.153  0.282 -0.577  0.609 -0.439
      -0.023 -0.919 -0.000  0.161 -0.358
      -0.321  0.008  0.577  0.685  0.308
     occupation matrix ns (before diag.):
       0.993 -0.000 -0.000  0.000 -0.001
      -0.000  0.995 -0.000 -0.001  0.000
      -0.000 -0.000  0.995  0.001  0.000
       0.000 -0.001  0.001  0.993 -0.000
      -0.001  0.000  0.000 -0.000  0.995

     Number of occupied Hubbard levels =   14.5679

     HUBBARD ENERGY =    0.3493  (Ry)

     total cpu time spent up to now is        7.8 secs

     total energy              =    -678.36439465 Ry
     estimated scf accuracy    <       0.13457828 Ry

     total magnetization       =     0.14 Bohr mag/cell
     absolute magnetization    =     5.51 Bohr mag/cell

     iteration #  6     ecut=    35.00 Ry     beta= 0.70
     Davidson diagonalization with overlap

---- Real-time Memory Report at c_bands before calling an iterative solver
            68 MiB given to the printing process from OS
             0 MiB allocation reported by mallinfo(arena+hblkhd)
            90 MiB available memory on the node where the printing process lives
------------------
     ethr =  2.93E-04,  avg # of iterations =  2.2

     =================== HUBBARD OCCUPATIONS ===================
     ------------------------ ATOM    1 ------------------------
     Tr[ns(  1)] (up, down, total) =   4.97182  2.37259  7.34440
     Atomic magnetic moment for atom   1 =   2.59923
     SPIN  1
     eigenvalues:
       0.993  0.993  0.995  0.995  0.995
     eigenvectors (columns):
      -0.721  0.293 -0.000 -0.491 -0.391
      -0.404 -0.315 -0.577 -0.095  0.629
      -0.070  0.508 -0.577  0.592 -0.232
      -0.293 -0.721  0.000  0.391 -0.491
      -0.475  0.193  0.577  0.497  0.396
     occupation matrix ns (before diag.):
       0.994 -0.000 -0.000  0.000 -0.001
      -0.000  0.995  0.000 -0.001 -0.000
      -0.000  0.000  0.995  0.001 -0.000
       0.000 -0.001  0.001  0.994 -0.000
      -0.001 -0.000 -0.000 -0.000  0.995
     SPIN  2
     eigenvalues:
       0.094  0.163  0.163  0.977  0.977
     eigenvectors (columns):
       0.000  0.548 -0.836 -0.033  0.003
       0.577  0.012  0.024 -0.477 -0.662
       0.577 -0.027 -0.002 -0.334  0.744
      -0.000 -0.836 -0.548 -0.003 -0.033
      -0.577 -0.015  0.022 -0.812  0.083
     occupation matrix ns (before diag.):
       0.164  0.011  0.011  0.000  0.022
       0.011  0.682 -0.294  0.019  0.294
       0.011 -0.294  0.682 -0.019  0.294
       0.000  0.019 -0.019  0.164 -0.000
       0.022  0.294  0.294 -0.000  0.682
     ------------------------ ATOM    2 ------------------------
     Tr[ns(  2)] (up, down, total) =   2.24828  4.95571  7.20399
     Atomic magnetic moment for atom   2 =  -2.70742
     SPIN  1
     eigenvalues:
       0.071  0.120  0.120  0.969  0.969
     eigenvectors (columns):
       0.000 -0.770 -0.637 -0.030 -0.003
       0.577 -0.004  0.025 -0.480  0.660
       0.577  0.023 -0.009 -0.332 -0.746
      -0.000  0.637 -0.770 -0.003  0.030
      -0.577  0.019  0.016 -0.812 -0.086
     occupation matrix ns (before diag.):
       0.121  0.011  0.011  0.000  0.021
       0.011  0.669 -0.299  0.018  0.299
       0.011 -0.299  0.669 -0.018  0.299
       0.000  0.018 -0.018  0.121 -0.000
       0.021  0.299  0.299 -0.000  0.669
     SPIN  2
     eigenvalues:
       0.989  0.989  0.992  0.993  0.993
     eigenvectors (columns):
      -0.834  0.310 -0.000 -0.401  0.218
      -0.287 -0.238 -0.577  0.018 -0.726
      -0.062  0.367 -0.577  0.620  0.378
      -0.310 -0.834  0.000  0.218  0.401
      -0.349  0.130  0.577  0.638 -0.348
     occupation matrix ns (before diag.):
       0.990 -0.001 -0.001  0.000 -0.002
      -0.001  0.992 -0.000 -0.001  0.000
      -0.001 -0.000  0.992  0.001  0.000
       0.000 -0.001  0.001  0.990 -0.000
      -0.002  0.000  0.000 -0.000  0.992

     Number of occupied Hubbard levels =   14.5484

     HUBBARD ENERGY =    0.2620  (Ry)

     total cpu time spent up to now is        8.8 secs

     total energy              =    -678.41165840 Ry
     estimated scf accuracy    <       0.09518379 Ry

     total magnetization       =    -0.02 Bohr mag/cell
     absolute magnetization    =     5.51 Bohr mag/cell

     iteration #  7     ecut=    35.00 Ry     beta= 0.70
     Davidson diagonalization with overlap

---- Real-time Memory Report at c_bands before calling an iterative solver
            68 MiB given to the printing process from OS
             0 MiB allocation reported by mallinfo(arena+hblkhd)
            89 MiB available memory on the node where the printing process lives
------------------
     ethr =  2.07E-04,  avg # of iterations =  2.0

     =================== HUBBARD OCCUPATIONS ===================
     ------------------------ ATOM    1 ------------------------
     Tr[ns(  1)] (up, down, total) =   4.96111  2.27462  7.23573
     Atomic magnetic moment for atom   1 =   2.68650
     SPIN  1
     eigenvalues:
       0.990  0.990  0.993  0.994  0.994
     eigenvectors (columns):
      -0.732  0.268 -0.000  0.487  0.394
      -0.392 -0.328 -0.577  0.099 -0.629
      -0.088  0.504 -0.577 -0.594  0.229
      -0.268 -0.732  0.000 -0.394  0.487
      -0.480  0.176  0.577 -0.495 -0.400
     occupation matrix ns (before diag.):
       0.991 -0.001 -0.001  0.000 -0.002
      -0.001  0.993  0.000 -0.001 -0.000
      -0.001  0.000  0.993  0.001 -0.000
       0.000 -0.001  0.001  0.991 -0.000
      -0.002 -0.000 -0.000 -0.000  0.993
     SPIN  2
     eigenvalues:
       0.053  0.134  0.134  0.977  0.977
     eigenvectors (columns):
       0.000 -0.622 -0.783 -0.011  0.001
       0.577 -0.003  0.009 -0.464 -0.672
       0.577  0.009 -0.001 -0.350  0.738
      -0.000  0.783 -0.622 -0.001 -0.011
      -0.577  0.006  0.007 -0.814  0.066
     occupation matrix ns (before diag.):
       0.134  0.004  0.004  0.000  0.008
       0.004  0.669 -0.308  0.007  0.308
       0.004 -0.308  0.669 -0.007  0.308
       0.000  0.007 -0.007  0.134 -0.000
       0.008  0.308  0.308 -0.000  0.669
     ------------------------ ATOM    2 ------------------------
     Tr[ns(  2)] (up, down, total) =   2.31700  4.96747  7.28446
     Atomic magnetic moment for atom   2 =  -2.65047
     SPIN  1
     eigenvalues:
       0.060  0.149  0.149  0.979  0.979
     eigenvectors (columns):
       0.000  0.653 -0.757 -0.013  0.001
       0.577  0.003  0.010 -0.457 -0.676
       0.577 -0.010 -0.002 -0.357  0.734
      -0.000 -0.757 -0.653 -0.001 -0.013
      -0.577 -0.007  0.008 -0.814  0.058
     occupation matrix ns (before diag.):
       0.149  0.004  0.004  0.000  0.009
       0.004  0.673 -0.306  0.008  0.306
       0.004 -0.306  0.673 -0.008  0.306
       0.000  0.008 -0.008  0.149 -0.000
       0.009  0.306  0.306 -0.000  0.673
     SPIN  2
     eigenvalues:
       0.992  0.992  0.994  0.995  0.995
     eigenvectors (columns):
      -0.645  0.279 -0.000 -0.526 -0.480
      -0.466 -0.346 -0.577 -0.123  0.560
      -0.067  0.577 -0.577  0.547 -0.174
      -0.279 -0.645  0.000  0.480 -0.526
      -0.533  0.231  0.577  0.424  0.387
     occupation matrix ns (before diag.):
       0.993 -0.001 -0.001  0.000 -0.001
      -0.001  0.994  0.000 -0.001 -0.000
      -0.001  0.000  0.994  0.001 -0.000
       0.000 -0.001  0.001  0.993 -0.000
      -0.001 -0.000 -0.000 -0.000  0.994

     Number of occupied Hubbard levels =   14.5202

     HUBBARD ENERGY =    0.1502  (Ry)

     total cpu time spent up to now is        9.9 secs

     WARNING: integrated charge=    46.00001816, expected=    46.00000000

     total energy              =    -678.43804892 Ry
     estimated scf accuracy    <       0.01982698 Ry

     total magnetization       =     0.00 Bohr mag/cell
     absolute magnetization    =     5.52 Bohr mag/cell

     iteration #  8     ecut=    35.00 Ry     beta= 0.70
     Davidson diagonalization with overlap

---- Real-time Memory Report at c_bands before calling an iterative solver
            68 MiB given to the printing process from OS
             0 MiB allocation reported by mallinfo(arena+hblkhd)
           106 MiB available memory on the node where the printing process lives
------------------
     ethr =  4.31E-05,  avg # of iterations =  1.6

     =================== HUBBARD OCCUPATIONS ===================
     ------------------------ ATOM    1 ------------------------
     Tr[ns(  1)] (up, down, total) =   4.96347  2.27816  7.24163
     Atomic magnetic moment for atom   1 =   2.68531
     SPIN  1
     eigenvalues:
       0.990  0.990  0.994  0.994  0.994
     eigenvectors (columns):
      -0.646 -0.267  0.000  0.529  0.481
      -0.463  0.356  0.577  0.121 -0.558
      -0.076 -0.579  0.577 -0.544  0.174
      -0.267  0.646 -0.000 -0.481  0.529
      -0.539 -0.223 -0.577 -0.422 -0.384
     occupation matrix ns (before diag.):
       0.992 -0.001 -0.001  0.000 -0.002
      -0.001  0.993  0.001 -0.001 -0.001
      -0.001  0.001  0.993  0.001 -0.001
       0.000 -0.001  0.001  0.992 -0.000
      -0.002 -0.001 -0.001 -0.000  0.993
     SPIN  2
     eigenvalues:
       0.041  0.137  0.137  0.981  0.981
     eigenvectors (columns):
       0.000 -0.819 -0.574  0.019  0.001
       0.577  0.001 -0.016 -0.440  0.688
       0.577 -0.014  0.007 -0.376 -0.725
      -0.000  0.574 -0.819  0.001 -0.019
      -0.577 -0.013 -0.009 -0.816 -0.037
     occupation matrix ns (before diag.):
       0.138 -0.007 -0.007  0.000 -0.013
      -0.007  0.668 -0.313 -0.011  0.313
      -0.007 -0.313  0.668  0.011  0.313
       0.000 -0.011  0.011  0.138 -0.000
      -0.013  0.313  0.313 -0.000  0.668
     ------------------------ ATOM    2 ------------------------
     Tr[ns(  2)] (up, down, total) =   2.29037  4.96559  7.25595
     Atomic magnetic moment for atom   2 =  -2.67522
     SPIN  1
     eigenvalues:
       0.042  0.142  0.142  0.982  0.982
     eigenvectors (columns):
       0.000  0.741  0.671  0.018 -0.001
       0.577 -0.003  0.015 -0.444 -0.685
       0.577  0.014 -0.005 -0.372  0.727
      -0.000 -0.671  0.741  0.001  0.018
      -0.577  0.011  0.010 -0.815  0.042
     occupation matrix ns (before diag.):
       0.143 -0.006 -0.006  0.000 -0.013
      -0.006  0.668 -0.313 -0.011  0.313
      -0.006 -0.313  0.668  0.011  0.313
       0.000 -0.011  0.011  0.143 -0.000
      -0.013  0.313  0.313 -0.000  0.668
     SPIN  2
     eigenvalues:
       0.991  0.991  0.994  0.995  0.995
     eigenvectors (columns):
       0.636  0.254  0.000  0.528  0.502
       0.467 -0.368  0.577  0.131 -0.544
       0.085  0.588  0.577 -0.537  0.159
       0.254 -0.636 -0.000 -0.502  0.528
       0.552  0.220 -0.577 -0.406 -0.386
     occupation matrix ns (before diag.):
       0.993 -0.001 -0.001  0.000 -0.002
      -0.001  0.993  0.001 -0.001 -0.001
      -0.001  0.001  0.993  0.001 -0.001
       0.000 -0.001  0.001  0.993 -0.000
      -0.002 -0.001 -0.001 -0.000  0.993

     Number of occupied Hubbard levels =   14.4976

     HUBBARD ENERGY =    0.1758  (Ry)

     total cpu time spent up to now is       10.9 secs

     total energy              =    -678.44244466 Ry
     estimated scf accuracy    <       0.00237928 Ry

     total magnetization       =     0.00 Bohr mag/cell
     absolute magnetization    =     5.53 Bohr mag/cell

     iteration #  9     ecut=    35.00 Ry     beta= 0.70
     Davidson diagonalization with overlap

---- Real-time Memory Report at c_bands before calling an iterative solver
            68 MiB given to the printing process from OS
             0 MiB allocation reported by mallinfo(arena+hblkhd)
            89 MiB available memory on the node where the printing process lives
------------------
     ethr =  5.17E-06,  avg # of iterations =  2.5

     =================== HUBBARD OCCUPATIONS ===================
     ------------------------ ATOM    1 ------------------------
     Tr[ns(  1)] (up, down, total) =   4.96492  2.28691  7.25184
     Atomic magnetic moment for atom   1 =   2.67801
     SPIN  1
     eigenvalues:
       0.991  0.991  0.994  0.995  0.995
     eigenvectors (columns):
       0.633  0.269  0.000  0.528  0.498
       0.474 -0.356  0.577  0.130 -0.546
       0.072  0.588  0.577 -0.538  0.161
       0.269 -0.633 -0.000 -0.498  0.528
       0.545  0.232 -0.577 -0.408 -0.386
     occupation matrix ns (before diag.):
       0.993 -0.001 -0.001  0.000 -0.001
      -0.001  0.993  0.000 -0.001 -0.000
      -0.001  0.000  0.993  0.001 -0.000
       0.000 -0.001  0.001  0.993 -0.000
      -0.001 -0.000 -0.000 -0.000  0.993
     SPIN  2
     eigenvalues:
       0.044  0.140  0.140  0.982  0.982
     eigenvectors (columns):
       0.000  0.653 -0.757  0.031 -0.001
       0.577 -0.008 -0.024 -0.426 -0.696
       0.577  0.025  0.005 -0.389  0.717
      -0.000 -0.757 -0.653  0.001  0.031
      -0.577  0.017 -0.019 -0.816  0.021
     occupation matrix ns (before diag.):
       0.141 -0.011 -0.011  0.000 -0.022
      -0.011  0.668 -0.312 -0.019  0.312
      -0.011 -0.312  0.668  0.019  0.312
       0.000 -0.019  0.019  0.141 -0.000
      -0.022  0.312  0.312 -0.000  0.668
     ------------------------ ATOM    2 ------------------------
     Tr[ns(  2)] (up, down, total) =   2.28191  4.96427  7.24618
     Atomic magnetic moment for atom   2 =  -2.68237
     SPIN  1
     eigenvalues:
       0.043  0.138  0.138  0.981  0.981
     eigenvectors (columns):
       0.000  0.654  0.756  0.031  0.001
       0.577 -0.008  0.024 -0.438  0.689
       0.577  0.025 -0.005 -0.378 -0.723
      -0.000 -0.756  0.654  0.001 -0.031
      -0.577  0.017  0.019 -0.815 -0.034
     occupation matrix ns (before diag.):
       0.139 -0.011 -0.011  0.000 -0.021
      -0.011  0.668 -0.312 -0.019  0.312
      -0.011 -0.312  0.668  0.019  0.312
       0.000 -0.019  0.019  0.139 -0.000
      -0.021  0.312  0.312 -0.000  0.668
     SPIN  2
     eigenvalues:
       0.991  0.991  0.994  0.994  0.994
     eigenvectors (columns):
       0.647  0.267  0.000  0.522  0.487
       0.462 -0.355  0.577  0.129 -0.557
       0.077  0.578  0.577 -0.547  0.167
       0.267 -0.647 -0.000 -0.487  0.522
       0.539  0.222 -0.577 -0.418 -0.390
     occupation matrix ns (before diag.):
       0.993 -0.001 -0.001  0.000 -0.002
      -0.001  0.993  0.000 -0.001 -0.000
      -0.001  0.000  0.993  0.001 -0.000
       0.000 -0.001  0.001  0.993 -0.000
      -0.002 -0.000 -0.000 -0.000  0.993

     Number of occupied Hubbard levels =   14.4980

     HUBBARD ENERGY =    0.1756  (Ry)

     total cpu time spent up to now is       11.9 secs

     WARNING: integrated charge=    45.99999091, expected=    46.00000000

     total energy              =    -678.44264709 Ry
     estimated scf accuracy    <       0.00092642 Ry

     total magnetization       =     0.00 Bohr mag/cell
     absolute magnetization    =     5.53 Bohr mag/cell

     iteration # 10     ecut=    35.00 Ry     beta= 0.70
     Davidson diagonalization with overlap

---- Real-time Memory Report at c_bands before calling an iterative solver
            68 MiB given to the printing process from OS
             0 MiB allocation reported by mallinfo(arena+hblkhd)
            87 MiB available memory on the node where the printing process lives
------------------
     ethr =  2.01E-06,  avg # of iterations =  2.2

     =================== HUBBARD OCCUPATIONS ===================
     ------------------------ ATOM    1 ------------------------
     Tr[ns(  1)] (up, down, total) =   4.96476  2.28399  7.24875
     Atomic magnetic moment for atom   1 =   2.68076
     SPIN  1
     eigenvalues:
       0.991  0.991  0.994  0.994  0.994
     eigenvectors (columns):
       0.641  0.268  0.000  0.522  0.494
       0.467 -0.356  0.577  0.132 -0.552
       0.075  0.582  0.577 -0.544  0.162
       0.268 -0.641 -0.000 -0.494  0.522
       0.541  0.226 -0.577 -0.412 -0.390
     occupation matrix ns (before diag.):
       0.993 -0.001 -0.001  0.000 -0.001
      -0.001  0.993  0.000 -0.001 -0.000
      -0.001  0.000  0.993  0.001 -0.000
       0.000 -0.001  0.001  0.993 -0.000
      -0.001 -0.000 -0.000 -0.000  0.993
     SPIN  2
     eigenvalues:
       0.043  0.138  0.138  0.982  0.982
     eigenvectors (columns):
      -0.000 -0.411 -0.910 -0.064 -0.000
      -0.577  0.031 -0.043  0.406  0.706
      -0.577 -0.052 -0.005  0.408 -0.705
       0.000  0.910 -0.411  0.000 -0.064
       0.577 -0.022 -0.048  0.815  0.001
     occupation matrix ns (before diag.):
       0.142 -0.022 -0.022  0.000 -0.044
      -0.022  0.667 -0.312 -0.038  0.312
      -0.022 -0.312  0.667  0.038  0.312
       0.000 -0.038  0.038  0.142 -0.000
      -0.044  0.312  0.312 -0.000  0.667
     ------------------------ ATOM    2 ------------------------
     Tr[ns(  2)] (up, down, total) =   2.28328  4.96438  7.24765
     Atomic magnetic moment for atom   2 =  -2.68110
     SPIN  1
     eigenvalues:
       0.044  0.138  0.138  0.982  0.982
     eigenvectors (columns):
      -0.000  0.434  0.899 -0.064 -0.000
      -0.577 -0.030  0.044  0.411 -0.704
      -0.577  0.053  0.004  0.404  0.708
       0.000 -0.899  0.434 -0.000  0.064
       0.577  0.023  0.047  0.815  0.004
     occupation matrix ns (before diag.):
       0.142 -0.022 -0.022  0.000 -0.044
      -0.022  0.667 -0.312 -0.038  0.312
      -0.022 -0.312  0.667  0.038  0.312
       0.000 -0.038  0.038  0.142 -0.000
      -0.044  0.312  0.312 -0.000  0.667
     SPIN  2
     eigenvalues:
       0.991  0.991  0.994  0.994  0.994
     eigenvectors (columns):
       0.644  0.248  0.000  0.533  0.490
       0.460 -0.371  0.577  0.123 -0.550
       0.092  0.584  0.577 -0.538  0.169
       0.248 -0.644 -0.000 -0.490  0.533
       0.551  0.213 -0.577 -0.415 -0.381
     occupation matrix ns (before diag.):
       0.993 -0.001 -0.001  0.000 -0.001
      -0.001  0.993  0.000 -0.001 -0.000
      -0.001  0.000  0.993  0.001 -0.000
       0.000 -0.001  0.001  0.993 -0.000
      -0.001 -0.000 -0.000 -0.000  0.993

     Number of occupied Hubbard levels =   14.4964

     HUBBARD ENERGY =    0.1667  (Ry)

     total cpu time spent up to now is       13.1 secs

     WARNING: integrated charge=    45.99999388, expected=    46.00000000

     total energy              =    -678.44478462 Ry
     estimated scf accuracy    <       0.00035603 Ry

     total magnetization       =    -0.00 Bohr mag/cell
     absolute magnetization    =     5.53 Bohr mag/cell

     iteration # 11     ecut=    35.00 Ry     beta= 0.70
     Davidson diagonalization with overlap

---- Real-time Memory Report at c_bands before calling an iterative solver
            68 MiB given to the printing process from OS
             0 MiB allocation reported by mallinfo(arena+hblkhd)
            93 MiB available memory on the node where the printing process lives
------------------
     ethr =  7.74E-07,  avg # of iterations =  1.8

     =================== HUBBARD OCCUPATIONS ===================
     ------------------------ ATOM    1 ------------------------
     Tr[ns(  1)] (up, down, total) =   4.96453  2.28230  7.24683
     Atomic magnetic moment for atom   1 =   2.68223
     SPIN  1
     eigenvalues:
       0.991  0.991  0.994  0.994  0.994
     eigenvectors (columns):
       0.634  0.272  0.000  0.522  0.501
       0.473 -0.354  0.577  0.135 -0.547
       0.070  0.587  0.577 -0.541  0.157
       0.272 -0.634 -0.000 -0.501  0.522
       0.543  0.233 -0.577 -0.406 -0.390
     occupation matrix ns (before diag.):
       0.993 -0.001 -0.001  0.000 -0.001
      -0.001  0.993  0.000 -0.001 -0.000
      -0.001  0.000  0.993  0.001 -0.000
       0.000 -0.001  0.001  0.993 -0.000
      -0.001 -0.000 -0.000 -0.000  0.993
     SPIN  2
     eigenvalues:
       0.043  0.138  0.138  0.982  0.982
     eigenvectors (columns):
       0.000 -0.688 -0.721  0.076 -0.002
       0.577  0.017 -0.059 -0.387  0.716
       0.577 -0.060  0.015 -0.427 -0.693
      -0.000  0.721 -0.688 -0.002 -0.076
      -0.577 -0.043 -0.045 -0.814  0.023
     occupation matrix ns (before diag.):
       0.143 -0.026 -0.026  0.000 -0.052
      -0.026  0.666 -0.312 -0.045  0.312
      -0.026 -0.312  0.666  0.045  0.312
       0.000 -0.045  0.045  0.143 -0.000
      -0.052  0.312  0.312 -0.000  0.666
     ------------------------ ATOM    2 ------------------------
     Tr[ns(  2)] (up, down, total) =   2.28287  4.96459  7.24746
     Atomic magnetic moment for atom   2 =  -2.68172
     SPIN  1
     eigenvalues:
       0.043  0.138  0.138  0.982  0.982
     eigenvectors (columns):
       0.000 -0.391 -0.917  0.076 -0.001
       0.577  0.037 -0.050 -0.398  0.710
       0.577 -0.062 -0.007 -0.416 -0.700
      -0.000  0.917 -0.391 -0.001 -0.076
      -0.577 -0.024 -0.057 -0.814  0.011
     occupation matrix ns (before diag.):
       0.143 -0.026 -0.026  0.000 -0.052
      -0.026  0.666 -0.312 -0.045  0.312
      -0.026 -0.312  0.666  0.045  0.312
       0.000 -0.045  0.045  0.143 -0.000
      -0.052  0.312  0.312 -0.000  0.666
     SPIN  2
     eigenvalues:
       0.991  0.991  0.994  0.994  0.994
     eigenvectors (columns):
       0.646  0.240  0.000  0.524  0.501
       0.456 -0.377  0.577  0.134 -0.546
       0.099  0.584  0.577 -0.540  0.157
       0.240 -0.646 -0.000 -0.501  0.524
       0.555  0.206 -0.577 -0.406 -0.389
     occupation matrix ns (before diag.):
       0.993 -0.001 -0.001  0.000 -0.001
      -0.001  0.993  0.000 -0.001 -0.000
      -0.001  0.000  0.993  0.001 -0.000
       0.000 -0.001  0.001  0.993 -0.000
      -0.001 -0.000 -0.000 -0.000  0.993

     Number of occupied Hubbard levels =   14.4943

     HUBBARD ENERGY =    0.1593  (Ry)

     total cpu time spent up to now is       14.2 secs

     total energy              =    -678.44502900 Ry
     estimated scf accuracy    <       0.00006417 Ry

     total magnetization       =     0.00 Bohr mag/cell
     absolute magnetization    =     5.53 Bohr mag/cell

     iteration # 12     ecut=    35.00 Ry     beta= 0.70
     Davidson diagonalization with overlap

---- Real-time Memory Report at c_bands before calling an iterative solver
            68 MiB given to the printing process from OS
             0 MiB allocation reported by mallinfo(arena+hblkhd)
            83 MiB available memory on the node where the printing process lives
------------------
     ethr =  1.40E-07,  avg # of iterations =  1.3

     =================== HUBBARD OCCUPATIONS ===================
     ------------------------ ATOM    1 ------------------------
     Tr[ns(  1)] (up, down, total) =   4.96450  2.28158  7.24608
     Atomic magnetic moment for atom   1 =   2.68292
     SPIN  1
     eigenvalues:
       0.991  0.991  0.994  0.994  0.994
     eigenvectors (columns):
       0.635  0.265  0.000  0.523  0.503
       0.471 -0.359  0.577  0.134 -0.545
       0.075  0.588  0.577 -0.539  0.156
       0.265 -0.635 -0.000 -0.503  0.523
       0.547  0.229 -0.577 -0.405 -0.389
     occupation matrix ns (before diag.):
       0.993 -0.001 -0.001  0.000 -0.001
      -0.001  0.993  0.000 -0.001 -0.000
      -0.001  0.000  0.993  0.001 -0.000
       0.000 -0.001  0.001  0.993 -0.000
      -0.001 -0.000 -0.000 -0.000  0.993
     SPIN  2
     eigenvalues:
       0.042  0.138  0.138  0.982  0.982
     eigenvectors (columns):
       0.000 -0.488 -0.869  0.083 -0.003
       0.577  0.035 -0.058 -0.385  0.717
       0.577 -0.068 -0.001 -0.428 -0.692
      -0.000  0.869 -0.488 -0.003 -0.083
      -0.577 -0.033 -0.059 -0.813  0.025
     occupation matrix ns (before diag.):
       0.144 -0.029 -0.029  0.000 -0.057
      -0.029  0.665 -0.312 -0.049  0.312
      -0.029 -0.312  0.665  0.049  0.312
       0.000 -0.049  0.049  0.144 -0.000
      -0.057  0.312  0.312 -0.000  0.665
     ------------------------ ATOM    2 ------------------------
     Tr[ns(  2)] (up, down, total) =   2.28203  4.96456  7.24659
     Atomic magnetic moment for atom   2 =  -2.68253
     SPIN  1
     eigenvalues:
       0.042  0.138  0.138  0.982  0.982
     eigenvectors (columns):
       0.000 -0.780 -0.620  0.084 -0.002
       0.577  0.010 -0.067 -0.389  0.715
       0.577 -0.063  0.025 -0.425 -0.694
      -0.000  0.620 -0.780 -0.002 -0.084
      -0.577 -0.053 -0.042 -0.813  0.021
     occupation matrix ns (before diag.):
       0.144 -0.029 -0.029  0.000 -0.057
      -0.029  0.665 -0.312 -0.050  0.312
      -0.029 -0.312  0.665  0.050  0.312
       0.000 -0.050  0.050  0.144 -0.000
      -0.057  0.312  0.312 -0.000  0.665
     SPIN  2
     eigenvalues:
       0.991  0.991  0.994  0.994  0.994
     eigenvectors (columns):
       0.644  0.240  0.000  0.527  0.500
       0.457 -0.378  0.577  0.131 -0.545
       0.098  0.585  0.577 -0.538  0.159
       0.240 -0.644 -0.000 -0.500  0.527
       0.556  0.207 -0.577 -0.407 -0.386
     occupation matrix ns (before diag.):
       0.993 -0.001 -0.001  0.000 -0.001
      -0.001  0.993  0.000 -0.001 -0.000
      -0.001  0.000  0.993  0.001 -0.000
       0.000 -0.001  0.001  0.993 -0.000
      -0.001 -0.000 -0.000 -0.000  0.993

     Number of occupied Hubbard levels =   14.4927

     HUBBARD ENERGY =    0.1611  (Ry)

     total cpu time spent up to now is       15.2 secs

     total energy              =    -678.44513048 Ry
     estimated scf accuracy    <       0.00000424 Ry

     total magnetization       =     0.00 Bohr mag/cell
     absolute magnetization    =     5.53 Bohr mag/cell

     iteration # 13     ecut=    35.00 Ry     beta= 0.70
     Davidson diagonalization with overlap

---- Real-time Memory Report at c_bands before calling an iterative solver
            68 MiB given to the printing process from OS
             0 MiB allocation reported by mallinfo(arena+hblkhd)
            93 MiB available memory on the node where the printing process lives
------------------
     ethr =  9.22E-09,  avg # of iterations =  2.0

     =================== HUBBARD OCCUPATIONS ===================
     ------------------------ ATOM    1 ------------------------
     Tr[ns(  1)] (up, down, total) =   4.96451  2.28207  7.24657
     Atomic magnetic moment for atom   1 =   2.68244
     SPIN  1
     eigenvalues:
       0.991  0.991  0.994  0.994  0.994
     eigenvectors (columns):
       0.642  0.250  0.000  0.530  0.494
       0.461 -0.371  0.577  0.126 -0.548
       0.090  0.585  0.577 -0.538  0.165
       0.250 -0.642 -0.000 -0.494  0.530
       0.552  0.214 -0.577 -0.412 -0.383
     occupation matrix ns (before diag.):
       0.993 -0.001 -0.001  0.000 -0.001
      -0.001  0.993  0.000 -0.001 -0.000
      -0.001  0.000  0.993  0.001 -0.000
       0.000 -0.001  0.001  0.993 -0.000
      -0.001 -0.000 -0.000 -0.000  0.993
     SPIN  2
     eigenvalues:
       0.042  0.138  0.138  0.982  0.982
     eigenvectors (columns):
       0.000 -0.609 -0.789  0.084 -0.002
       0.577  0.026 -0.064 -0.389  0.715
       0.577 -0.068  0.009 -0.425 -0.694
      -0.000  0.789 -0.609 -0.002 -0.084
      -0.577 -0.042 -0.054 -0.813  0.021
     occupation matrix ns (before diag.):
       0.144 -0.029 -0.029  0.000 -0.058
      -0.029  0.665 -0.311 -0.050  0.311
      -0.029 -0.311  0.665  0.050  0.311
       0.000 -0.050  0.050  0.144 -0.000
      -0.058  0.311  0.311 -0.000  0.665
     ------------------------ ATOM    2 ------------------------
     Tr[ns(  2)] (up, down, total) =   2.28218  4.96452  7.24670
     Atomic magnetic moment for atom   2 =  -2.68234
     SPIN  1
     eigenvalues:
       0.042  0.138  0.138  0.982  0.982
     eigenvectors (columns):
       0.000  0.633 -0.770  0.085 -0.002
       0.577 -0.024 -0.065 -0.393  0.712
       0.577  0.068  0.011 -0.420 -0.697
      -0.000 -0.770 -0.633 -0.002 -0.085
      -0.577  0.044 -0.053 -0.813  0.016
     occupation matrix ns (before diag.):
       0.144 -0.029 -0.029  0.000 -0.058
      -0.029  0.665 -0.311 -0.050  0.311
      -0.029 -0.311  0.665  0.050  0.311
       0.000 -0.050  0.050  0.144 -0.000
      -0.058  0.311  0.311 -0.000  0.665
     SPIN  2
     eigenvalues:
       0.991  0.991  0.994  0.994  0.994
     eigenvectors (columns):
       0.643  0.246  0.000  0.520  0.505
       0.460 -0.373  0.577  0.137 -0.545
       0.093  0.585  0.577 -0.541  0.154
       0.246 -0.643 -0.000 -0.505  0.520
       0.553  0.212 -0.577 -0.404 -0.392
     occupation matrix ns (before diag.):
       0.993 -0.001 -0.001  0.000 -0.001
      -0.001  0.993  0.000 -0.001 -0.000
      -0.001  0.000  0.993  0.001 -0.000
       0.000 -0.001  0.001  0.993 -0.000
      -0.001 -0.000 -0.000 -0.000  0.993

     Number of occupied Hubbard levels =   14.4933

     HUBBARD ENERGY =    0.1610  (Ry)

     total cpu time spent up to now is       16.6 secs

     total energy              =    -678.44513316 Ry
     estimated scf accuracy    <       0.00000070 Ry

     total magnetization       =     0.00 Bohr mag/cell
     absolute magnetization    =     5.53 Bohr mag/cell

     iteration # 14     ecut=    35.00 Ry     beta= 0.70
     Davidson diagonalization with overlap

---- Real-time Memory Report at c_bands before calling an iterative solver
            68 MiB given to the printing process from OS
             0 MiB allocation reported by mallinfo(arena+hblkhd)
           123 MiB available memory on the node where the printing process lives
------------------
     ethr =  1.53E-09,  avg # of iterations =  2.0

     =================== HUBBARD OCCUPATIONS ===================
     ------------------------ ATOM    1 ------------------------
     Tr[ns(  1)] (up, down, total) =   4.96450  2.28199  7.24648
     Atomic magnetic moment for atom   1 =   2.68251
     SPIN  1
     eigenvalues:
       0.991  0.991  0.994  0.994  0.994
     eigenvectors (columns):
       0.647  0.235  0.000  0.514  0.511
       0.453 -0.381  0.577  0.144 -0.544
       0.103  0.583  0.577 -0.543  0.147
       0.235 -0.647 -0.000 -0.511  0.514
       0.556  0.202 -0.577 -0.399 -0.397
     occupation matrix ns (before diag.):
       0.993 -0.001 -0.001  0.000 -0.001
      -0.001  0.993  0.000 -0.001 -0.000
      -0.001  0.000  0.993  0.001 -0.000
       0.000 -0.001  0.001  0.993 -0.000
      -0.001 -0.000 -0.000 -0.000  0.993
     SPIN  2
     eigenvalues:
       0.042  0.138  0.138  0.982  0.982
     eigenvectors (columns):
       0.000  0.588 -0.805  0.085 -0.002
       0.577 -0.028 -0.063 -0.392  0.713
       0.577  0.069  0.007 -0.421 -0.696
      -0.000 -0.805 -0.588 -0.002 -0.085
      -0.577  0.041 -0.056 -0.813  0.017
     occupation matrix ns (before diag.):
       0.144 -0.029 -0.029  0.000 -0.058
      -0.029  0.665 -0.311 -0.050  0.311
      -0.029 -0.311  0.665  0.050  0.311
       0.000 -0.050  0.050  0.144 -0.000
      -0.058  0.311  0.311 -0.000  0.665
     ------------------------ ATOM    2 ------------------------
     Tr[ns(  2)] (up, down, total) =   2.28199  4.96450  7.24649
     Atomic magnetic moment for atom   2 =  -2.68251
     SPIN  1
     eigenvalues:
       0.042  0.138  0.138  0.982  0.982
     eigenvectors (columns):
       0.000  0.664 -0.743  0.085  0.002
       0.577 -0.022 -0.066 -0.386 -0.716
       0.577  0.068  0.014 -0.427  0.692
      -0.000 -0.743 -0.664 -0.002  0.085
      -0.577  0.046 -0.052 -0.813 -0.024
     occupation matrix ns (before diag.):
       0.144 -0.029 -0.029  0.000 -0.058
      -0.029  0.665 -0.311 -0.051  0.311
      -0.029 -0.311  0.665  0.051  0.311
       0.000 -0.051  0.051  0.144 -0.000
      -0.058  0.311  0.311 -0.000  0.665
     SPIN  2
     eigenvalues:
       0.991  0.991  0.994  0.994  0.994
     eigenvectors (columns):
       0.637  0.263  0.000  0.526  0.499
       0.469 -0.361  0.577  0.131 -0.547
       0.078  0.587  0.577 -0.539  0.160
       0.263 -0.637 -0.000 -0.499  0.526
       0.547  0.226 -0.577 -0.408 -0.387
     occupation matrix ns (before diag.):
       0.993 -0.001 -0.001  0.000 -0.001
      -0.001  0.993  0.000 -0.001 -0.000
      -0.001  0.000  0.993  0.001 -0.000
       0.000 -0.001  0.001  0.993 -0.000
      -0.001 -0.000 -0.000 -0.000  0.993

     Number of occupied Hubbard levels =   14.4930

     HUBBARD ENERGY =    0.1611  (Ry)

     total cpu time spent up to now is       18.0 secs

     total energy              =    -678.44513348 Ry
     estimated scf accuracy    <       0.00000005 Ry

     total magnetization       =     0.00 Bohr mag/cell
     absolute magnetization    =     5.53 Bohr mag/cell

     iteration # 15     ecut=    35.00 Ry     beta= 0.70
     Davidson diagonalization with overlap

---- Real-time Memory Report at c_bands before calling an iterative solver
            68 MiB given to the printing process from OS
             0 MiB allocation reported by mallinfo(arena+hblkhd)
            89 MiB available memory on the node where the printing process lives
------------------
     ethr =  1.00E-10,  avg # of iterations =  2.0

     =================== HUBBARD OCCUPATIONS ===================
     ------------------------ ATOM    1 ------------------------
     Tr[ns(  1)] (up, down, total) =   4.96450  2.28204  7.24654
     Atomic magnetic moment for atom   1 =   2.68246
     SPIN  1
     eigenvalues:
       0.991  0.991  0.994  0.994  0.994
     eigenvectors (columns):
       0.641  0.253  0.000  0.526  0.499
       0.464 -0.368  0.577  0.131 -0.547
       0.087  0.585  0.577 -0.539  0.160
       0.253 -0.641 -0.000 -0.499  0.526
       0.550  0.217 -0.577 -0.408 -0.387
     occupation matrix ns (before diag.):
       0.993 -0.001 -0.001  0.000 -0.001
      -0.001  0.993  0.000 -0.001 -0.000
      -0.001  0.000  0.993  0.001 -0.000
       0.000 -0.001  0.001  0.993 -0.000
      -0.001 -0.000 -0.000 -0.000  0.993
     SPIN  2
     eigenvalues:
       0.042  0.138  0.138  0.982  0.982
     eigenvectors (columns):
       0.000 -0.650 -0.755  0.085 -0.002
       0.577  0.023 -0.065 -0.386  0.716
       0.577 -0.068  0.013 -0.427 -0.692
      -0.000  0.755 -0.650 -0.002 -0.085
      -0.577 -0.045 -0.052 -0.813  0.024
     occupation matrix ns (before diag.):
       0.144 -0.029 -0.029  0.000 -0.058
      -0.029  0.665 -0.311 -0.050  0.311
      -0.029 -0.311  0.665  0.050  0.311
       0.000 -0.050  0.050  0.144 -0.000
      -0.058  0.311  0.311 -0.000  0.665
     ------------------------ ATOM    2 ------------------------
     Tr[ns(  2)] (up, down, total) =   2.28205  4.96450  7.24655
     Atomic magnetic moment for atom   2 =  -2.68245
     SPIN  1
     eigenvalues:
       0.042  0.138  0.138  0.982  0.982
     eigenvectors (columns):
       0.000  0.496 -0.864  0.085 -0.002
       0.577 -0.035 -0.060 -0.393  0.712
       0.577  0.069 -0.000 -0.420 -0.696
      -0.000 -0.864 -0.496 -0.002 -0.085
      -0.577  0.034 -0.060 -0.813  0.016
     occupation matrix ns (before diag.):
       0.144 -0.029 -0.029  0.000 -0.058
      -0.029  0.665 -0.311 -0.050  0.311
      -0.029 -0.311  0.665  0.050  0.311
       0.000 -0.050  0.050  0.144 -0.000
      -0.058  0.311  0.311 -0.000  0.665
     SPIN  2
     eigenvalues:
       0.991  0.991  0.994  0.994  0.994
     eigenvectors (columns):
       0.641  0.252  0.000  0.524  0.501
       0.463 -0.369  0.577  0.133 -0.547
       0.088  0.585  0.577 -0.540  0.158
       0.252 -0.641 -0.000 -0.501  0.524
       0.551  0.217 -0.577 -0.407 -0.389
     occupation matrix ns (before diag.):
       0.993 -0.001 -0.001  0.000 -0.001
      -0.001  0.993  0.000 -0.001 -0.000
      -0.001  0.000  0.993  0.001 -0.000
       0.000 -0.001  0.001  0.993 -0.000
      -0.001 -0.000 -0.000 -0.000  0.993

     Number of occupied Hubbard levels =   14.4931

     HUBBARD ENERGY =    0.1611  (Ry)

     Magnetic moment per site  (integrated on atomic sphere of radius R)
     atom   1 (R=0.202)  charge= 14.5033  magn=  2.5614
     atom   2 (R=0.202)  charge= 14.5033  magn= -2.5614
     atom   3 (R=0.202)  charge=  5.7287  magn= -0.0000
     atom   4 (R=0.202)  charge=  5.7287  magn= -0.0000

     total cpu time spent up to now is       19.2 secs

     End of self-consistent calculation

 ------ SPIN UP ------------


          k = 0.0000 0.0000 0.0000 (   811 PWs)   bands (ev):

   -81.4500 -77.9157 -45.6505 -44.3985 -44.3985 -41.6772 -41.2829 -41.2829
    -4.8596  -3.6580   5.9766   8.2672   8.2672   9.0602   9.6504   9.6504
    11.7542  11.7542  11.8241  13.3926  13.3926  13.6269  13.6269  16.6140
    18.3202  19.0343  19.0343  22.2935

     occupation numbers 
     1.0000   1.0000   1.0000   1.0000   1.0000   1.0000   1.0000   1.0000
     1.0000   1.0000   1.0000   1.0000   1.0000   1.0000   1.0000   1.0000
     1.0000   1.0000   1.0000   1.0000   1.0000   1.0000   1.0000   0.0000
     0.0000   0.0000   0.0000   0.0000

          k = 0.5338-0.1902-0.1902 (   827 PWs)   bands (ev):

   -81.4441 -77.9081 -45.6421 -44.4605 -44.4139 -41.6667 -41.3550 -41.3006
    -3.6813  -3.2277   6.9991   7.8074   8.1539   8.2965   9.2413   9.5008
    10.0889  11.3742  11.5208  12.2558  12.9785  13.1491  14.0192  18.0368
    18.8473  19.0821  21.6697  23.8539

     occupation numbers 
     1.0000   1.0000   1.0000   1.0000   1.0000   1.0000   1.0000   1.0000
     1.0000   1.0000   1.0000   1.0000   1.0000   1.0000   1.0000   1.0000
     1.0000   1.0000   1.0000   1.0000   1.0000   1.0000   1.0000   0.0000
     0.0000   0.0000   0.0000   0.0000

          k = 0.3436 0.3436-0.3804 (   827 PWs)   bands (ev):

   -81.4442 -77.9082 -45.6421 -44.4607 -44.4139 -41.6665 -41.3551 -41.3006
    -3.5557  -3.3695   7.3231   7.5103   7.9522   8.2617   9.2392   9.9843
    10.1167  10.8235  11.9496  12.2747  12.4226  13.3532  14.3236  18.0431
    19.1174  19.2279  20.7816  22.9875

     occupation numbers 
     1.0000   1.0000   1.0000   1.0000   1.0000   1.0000   1.0000   1.0000
     1.0000   1.0000   1.0000   1.0000   1.0000   1.0000   1.0000   1.0000
     1.0000   1.0000   1.0000   1.0000   1.0000   1.0000   1.0000   0.0000
     0.0000   0.0000   0.0000   0.0000

          k =-0.7241 0.7241 0.0000 (   831 PWs)   bands (ev):

   -81.4408 -77.9040 -45.6375 -44.4571 -44.4568 -41.6609 -41.3505 -41.3504
    -2.9800  -2.9796   7.4212   7.5667   7.7071   8.4222   8.4395   9.0864
    10.0356  11.2630  11.5283  12.6056  12.8979  13.0591  13.2585  18.7438
    19.1526  19.2520  23.8492  24.4327

     occupation numbers 
     1.0000   1.0000   1.0000   1.0000   1.0000   1.0000   1.0000   1.0000
     1.0000   1.0000   1.0000   1.0000   1.0000   1.0000   1.0000   1.0000
     1.0000   1.0000   1.0000   1.0000   1.0000   1.0000   1.0000   0.0000
     0.0000   0.0000   0.0000   0.0000

          k = 0.1534 0.1534 0.1534 (   817 PWs)   bands (ev):

   -81.4502 -77.9154 -45.6501 -44.3984 -44.3984 -41.6773 -41.2827 -41.2827
    -4.5955  -4.0004   6.5628   8.3020   8.3020   8.9477   9.6653   9.6653
    10.7479  11.6398  11.6398  12.9278  12.9278  14.2609  14.2609  17.4446
    18.8969  18.8969  19.0311  21.2546

     occupation numbers 
     1.0000   1.0000   1.0000   1.0000   1.0000   1.0000   1.0000   1.0000
     1.0000   1.0000   1.0000   1.0000   1.0000   1.0000   1.0000   1.0000
     1.0000   1.0000   1.0000   1.0000   1.0000   1.0000   1.0000   0.0000
     0.0000   0.0000   0.0000   0.0000

          k =-0.9143 0.5338 0.5338 (   815 PWs)   bands (ev):

   -81.4441 -77.9081 -45.6416 -44.4601 -44.4137 -41.6663 -41.3548 -41.3004
    -3.5954  -3.3183   6.9517   7.5164   8.0367   8.2657   9.5263   9.9651
    10.1383  11.4440  11.6572  12.4258  12.5217  13.0408  13.8795  18.2567
    18.4742  19.2584  22.1974  22.5331

     occupation numbers 
     1.0000   1.0000   1.0000   1.0000   1.0000   1.0000   1.0000   1.0000
     1.0000   1.0000   1.0000   1.0000   1.0000   1.0000   1.0000   1.0000
     1.0000   1.0000   1.0000   1.0000   1.0000   1.0000   1.0000   0.0000
     0.0000   0.0000   0.0000   0.0000

 ------ SPIN DOWN ----------


          k = 0.0000 0.0000 0.0000 (   811 PWs)   bands (ev):

   -81.4500 -77.9155 -45.6495 -44.3991 -44.3991 -41.6774 -41.2825 -41.2825
    -4.8596  -3.6580   5.9766   8.2669   8.2669   9.0605   9.6504   9.6504
    11.7543  11.7543  11.8241  13.3926  13.3926  13.6271  13.6271  16.6141
    18.3202  19.0344  19.0344  22.2936

     occupation numbers 
     1.0000   1.0000   1.0000   1.0000   1.0000   1.0000   1.0000   1.0000
     1.0000   1.0000   1.0000   1.0000   1.0000   1.0000   1.0000   1.0000
     1.0000   1.0000   1.0000   1.0000   1.0000   1.0000   1.0000   0.0000
     0.0000   0.0000   0.0000   0.0000

          k = 0.5338-0.1902-0.1902 (   827 PWs)   bands (ev):

   -81.4442 -77.9080 -45.6412 -44.4610 -44.4145 -41.6669 -41.3547 -41.3003
    -3.6813  -3.2277   6.9992   7.8073   8.1542   8.2966   9.2413   9.5007
    10.0885  11.3743  11.5214  12.2563  12.9782  13.1487  14.0194  18.0369
    18.8473  19.0821  21.6698  23.8539

     occupation numbers 
     1.0000   1.0000   1.0000   1.0000   1.0000   1.0000   1.0000   1.0000
     1.0000   1.0000   1.0000   1.0000   1.0000   1.0000   1.0000   1.0000
     1.0000   1.0000   1.0000   1.0000   1.0000   1.0000   1.0000   0.0000
     0.0000   0.0000   0.0000   0.0000

          k = 0.3436 0.3436-0.3804 (   827 PWs)   bands (ev):

   -81.4443 -77.9081 -45.6411 -44.4612 -44.4144 -41.6667 -41.3548 -41.3003
    -3.5557  -3.3695   7.3234   7.5100   7.9523   8.2619   9.2392   9.9843
    10.1163  10.8237  11.9504  12.2750  12.4224  13.3531  14.3234  18.0430
    19.1175  19.2281  20.7816  22.9875

     occupation numbers 
     1.0000   1.0000   1.0000   1.0000   1.0000   1.0000   1.0000   1.0000
     1.0000   1.0000   1.0000   1.0000   1.0000   1.0000   1.0000   1.0000
     1.0000   1.0000   1.0000   1.0000   1.0000   1.0000   1.0000   0.0000
     0.0000   0.0000   0.0000   0.0000

          k =-0.7241 0.7241 0.0000 (   831 PWs)   bands (ev):

   -81.4408 -77.9038 -45.6366 -44.4576 -44.4573 -41.6611 -41.3502 -41.3501
    -2.9800  -2.9796   7.4214   7.5669   7.7073   8.4219   8.4392   9.0868
    10.0360  11.2628  11.5281  12.6055  12.8977  13.0595  13.2588  18.7438
    19.1527  19.2521  23.8491  24.4326

     occupation numbers 
     1.0000   1.0000   1.0000   1.0000   1.0000   1.0000   1.0000   1.0000
     1.0000   1.0000   1.0000   1.0000   1.0000   1.0000   1.0000   1.0000
     1.0000   1.0000   1.0000   1.0000   1.0000   1.0000   1.0000   0.0000
     0.0000   0.0000   0.0000   0.0000

          k = 0.1534 0.1534 0.1534 (   817 PWs)   bands (ev):

   -81.4502 -77.9153 -45.6492 -44.3989 -44.3989 -41.6775 -41.2824 -41.2824
    -4.5955  -4.0004   6.5629   8.3017   8.3017   8.9478   9.6653   9.6653
    10.7480  11.6398  11.6398  12.9282  12.9282  14.2608  14.2608  17.4446
    18.8970  18.8970  19.0310  21.2547

     occupation numbers 
     1.0000   1.0000   1.0000   1.0000   1.0000   1.0000   1.0000   1.0000
     1.0000   1.0000   1.0000   1.0000   1.0000   1.0000   1.0000   1.0000
     1.0000   1.0000   1.0000   1.0000   1.0000   1.0000   1.0000   0.0000
     0.0000   0.0000   0.0000   0.0000

          k =-0.9143 0.5338 0.5338 (   815 PWs)   bands (ev):

   -81.4441 -77.9080 -45.6407 -44.4606 -44.4142 -41.6665 -41.3544 -41.3001
    -3.5954  -3.3183   6.9515   7.5165   8.0369   8.2659   9.5262   9.9652
    10.1378  11.4440  11.6576  12.4259  12.5217  13.0412  13.8791  18.2567
    18.4744  19.2585  22.1974  22.5331

     occupation numbers 
     1.0000   1.0000   1.0000   1.0000   1.0000   1.0000   1.0000   1.0000
     1.0000   1.0000   1.0000   1.0000   1.0000   1.0000   1.0000   1.0000
     1.0000   1.0000   1.0000   1.0000   1.0000   1.0000   1.0000   0.0000
     0.0000   0.0000   0.0000   0.0000

     the Fermi energy is    15.6219 ev

!    total energy              =    -678.44513351 Ry
     estimated scf accuracy    <          9.5E-09 Ry
     smearing contrib. (-TS)   =       0.00000000 Ry
     internal energy E=F+TS    =    -678.44513351 Ry

     The total energy is F=E-TS. E is the sum of the following terms:
     one-electron contribution =    -341.01428930 Ry
     hartree contribution      =     200.36078960 Ry
     xc contribution           =     -79.77109257 Ry
     ewald contribution        =    -439.97286945 Ry
     Hubbard energy            =       0.16114912 Ry
     one-center paw contrib.   =     -18.20882091 Ry
      -> PAW hartree energy AE =       0.00000000 Ry
      -> PAW hartree energy PS =       0.00000000 Ry
      -> PAW xc energy AE      =       0.00000000 Ry
      -> PAW xc energy PS      =       0.00000000 Ry
      -> total E_H with PAW    =     200.36078960 Ry
      -> total E_XC with PAW   =     -79.77109257 Ry

     total magnetization       =     0.00 Bohr mag/cell
     absolute magnetization    =     5.53 Bohr mag/cell

     convergence has been achieved in  15 iterations

     Writing all to output data dir ./tmp/CoO.save/ :
     XML data file, charge density, pseudopotentials, collected wavefunctions

     init_run     :      1.44s CPU      1.45s WALL (       1 calls)
     electrons    :     17.18s CPU     17.55s WALL (       1 calls)

     Called by init_run:
     wfcinit      :      0.36s CPU      0.33s WALL (       1 calls)
     wfcinit:atom :      0.00s CPU      0.00s WALL (      12 calls)
     wfcinit:wfcr :      0.30s CPU      0.28s WALL (      12 calls)
     potinit      :      0.51s CPU      0.53s WALL (       1 calls)
     hinit0       :      0.48s CPU      0.45s WALL (       1 calls)

     Called by electrons:
     c_bands      :     10.34s CPU     10.55s WALL (      15 calls)
     sum_band     :      2.89s CPU      2.93s WALL (      15 calls)
     v_of_rho     :      1.36s CPU      1.47s WALL (      16 calls)
     v_h          :      0.04s CPU      0.04s WALL (      16 calls)
     v_xc         :      1.31s CPU      1.42s WALL (      16 calls)
     newd         :      1.02s CPU      1.07s WALL (      16 calls)
     PAW_pot      :      1.65s CPU      1.64s WALL (      16 calls)
     mix_rho      :      0.09s CPU      0.10s WALL (      15 calls)

     Called by c_bands:
     init_us_2    :      0.06s CPU      0.06s WALL (     384 calls)
     cegterg      :     10.19s CPU     10.39s WALL (     180 calls)

     Called by sum_band:
     sum_band:wei :      0.00s CPU      0.01s WALL (      15 calls)
     sum_band:loo :      1.37s CPU      1.40s WALL (      15 calls)
     sum_band:buf :      0.01s CPU      0.01s WALL (     180 calls)
     sum_band:ini :      0.02s CPU      0.02s WALL (     180 calls)
     sum_band:cal :      0.16s CPU      0.16s WALL (     180 calls)
     sum_band:bec :      0.01s CPU      0.01s WALL (     180 calls)
     addusdens    :      1.35s CPU      1.35s WALL (      15 calls)
                                        0.00s GPU  (      15 calls)
     addusd:skk   :      0.00s CPU      0.00s WALL (      45 calls)
                                        0.00s GPU  (      45 calls)

     Called by *egterg:
     cdiaghg      :      0.65s CPU      0.66s WALL (     573 calls)
     cegterg:over :      0.47s CPU      0.48s WALL (     393 calls)
     cegterg:upda :      0.18s CPU      0.18s WALL (     393 calls)
     cegterg:last :      0.47s CPU      0.48s WALL (     362 calls)
     h_psi        :      8.01s CPU      8.13s WALL (     585 calls)
     s_psi        :      0.32s CPU      0.33s WALL (     597 calls)
     g_psi        :      0.01s CPU      0.01s WALL (     393 calls)

     Called by h_psi:
     h_psi:calbec :      0.41s CPU      0.41s WALL (     585 calls)
     vloc_psi     :      7.06s CPU      7.15s WALL (     585 calls)
     add_vuspsi   :      0.31s CPU      0.32s WALL (     585 calls)
     vhpsi        :      0.21s CPU      0.22s WALL (     585 calls)

     General routines
     calbec       :      0.76s CPU      0.78s WALL (    1542 calls)
     fft          :      0.91s CPU      0.92s WALL (     394 calls)
     ffts         :      0.21s CPU      0.19s WALL (      62 calls)
     fftw         :      6.86s CPU      6.97s WALL (   30162 calls)
     interpolate  :      0.26s CPU      0.25s WALL (      32 calls)

     Parallel routines

     Hubbard U routines
     new_ns       :      0.04s CPU      0.05s WALL (      15 calls)
     vhpsi        :      0.21s CPU      0.22s WALL (     585 calls)

     PAW routines
     PAW_pot      :      1.65s CPU      1.64s WALL (      16 calls)
     PAW_symme    :      0.01s CPU      0.01s WALL (      31 calls)

     PWSCF        :     18.89s CPU     19.29s WALL


   This run was terminated on:  16:15:32  12Jul2025            

=------------------------------------------------------------------------------=
   JOB DONE.
=------------------------------------------------------------------------------=
