
     Program PWSCF v.7.4.1 starts on 12Jul2025 at 16:15:43 

     This program is part of the open-source Quantum ESPRESSO suite
     for quantum simulation of materials; please cite
         "P. Giannozzi et al., J. Phys.:Condens. Matter 21 395502 (2009);
         "P. Giannozzi et al., J. Phys.:Condens. Matter 29 465901 (2017);
         "P. Giannozzi et al., J. Chem. Phys. 152 154105 (2020);
          URL http://www.quantum-espresso.org", 
     in publications or presentations arising from this work. More details at
     http://www.quantum-espresso.org/quote

     Parallel version (MPI), running on     4 processors

     MPI processes distributed on     1 nodes
     260 MiB available memory on the printing compute node when the environment starts

     Waiting for input...
     Reading input from standard input

     Current dimensions of program PWSCF are:
     Max number of different atomic species (ntypx) = 10
     Max number of k-points (npk) =  40000
     Max angular momentum in pseudopotentials (lmaxx) =  4
     file O.pbesol-n-kjpaw_psl.0.1.UPF: wavefunction(s)  2P renormalized
     Message from routine volume:
     axis vectors are left-handed

     Atomic positions and unit cell read from directory:
     ./tmp/CoO.save/

     Message from routine volume:
     axis vectors are left-handed
     Message from routine setup:
     using ibrav=0 with symmetry is DISCOURAGED, use correct ibrav instead

     R & G space division:  proc/nbgrp/npool/nimage =       4
     Subspace diagonalization in iterative solution of the eigenvalue problem:
     a serial algorithm will be used


     Parallelization info
     --------------------
     sticks:   dense  smooth     PW     G-vecs:    dense   smooth      PW
     Min         291     146     51                 4642     1635     350
     Max         292     147     52                 4643     1636     351
     Sum        1167     587    207                18569     6541    1403

     Using Slab Decomposition



     bravais-lattice index     =            0
     lattice parameter (alat)  =       8.0000  a.u.
     unit-cell volume          =     235.7543 (a.u.)^3
     number of atoms/cell      =            4
     number of atomic types    =            3
     number of electrons       =        46.00
     number of Kohn-Sham states=           40
     kinetic-energy cutoff     =      35.0000  Ry
     charge density cutoff     =     280.0000  Ry
     Exchange-correlation= SLA  PW   PSX  PSC
                           (   1   4  10   8   0   0   0)
     Hubbard projectors: ortho-atomic
     Hubbard parameters of DFT+U (Dudarev formulation) in eV:
     U(Co1-3d) =  6.3000
     U(Co2-3d) =  6.3000

     Internal variables: lda_plus_u =T, lda_plus_u_kind = 0

     celldm(1)=   8.000000  celldm(2)=   0.000000  celldm(3)=   0.000000
     celldm(4)=   0.000000  celldm(5)=   0.000000  celldm(6)=   0.000000

     crystal axes: (cart. coord. in units of alat)
               a(1) = (   0.570726   0.570726   1.031099 )  
               a(2) = (   0.570726   1.031099   0.570726 )  
               a(3) = (   1.031099   0.570726   0.570726 )  

     reciprocal axes: (cart. coord. in units 2 pi/alat)
               b(1) = ( -0.570621 -0.570621  1.601531 )  
               b(2) = ( -0.570621  1.601531 -0.570621 )  
               b(3) = (  1.601531 -0.570621 -0.570621 )  


     PseudoPot. # 1 for Co read from file:
     ./co_pbesol_v1.2.uspp.F.UPF
     MD5 check sum: 3b4cd4e7cc7df4da9fdede0fd33e2193
     Pseudo is Ultrasoft + core correction, Zval = 17.0
     Generated by new atomic code, or converted to UPF format
     Using radial grid of  863 points,  6 beta functions with: 
                l(1) =   0
                l(2) =   0
                l(3) =   1
                l(4) =   1
                l(5) =   2
                l(6) =   2
     Q(r) pseudized with  8 coefficients,  rinner =    1.200   1.200   1.200
                                                       1.200   1.200

     PseudoPot. # 2 for Co read from file:
     ./co_pbesol_v1.2.uspp.F.UPF
     MD5 check sum: 3b4cd4e7cc7df4da9fdede0fd33e2193
     Pseudo is Ultrasoft + core correction, Zval = 17.0
     Generated by new atomic code, or converted to UPF format
     Using radial grid of  863 points,  6 beta functions with: 
                l(1) =   0
                l(2) =   0
                l(3) =   1
                l(4) =   1
                l(5) =   2
                l(6) =   2
     Q(r) pseudized with  8 coefficients,  rinner =    1.200   1.200   1.200
                                                       1.200   1.200

     PseudoPot. # 3 for O  read from file:
     ./O.pbesol-n-kjpaw_psl.0.1.UPF
     MD5 check sum: 126339daddaa87477ab44acfa0b5aa00
     Pseudo is Projector augmented-wave + core cor, Zval =  6.0
     Generated using "atomic" code by A. Dal Corso  v.6.0 svn rev. 13079
     Shape of augmentation charge: BESSEL
     Using radial grid of 1095 points,  4 beta functions with: 
                l(1) =   0
                l(2) =   0
                l(3) =   1
                l(4) =   1
     Q(r) pseudized with 0 coefficients 


     atomic species   valence    mass     pseudopotential
     Co1              17.00    58.93319     Co( 1.00)
     Co2              17.00    58.93319     Co( 1.00)
     O                 6.00    15.99900     O ( 1.00)

     Starting magnetic structure 
     atomic species   magnetization
     Co1             0.500
     Co2            -0.500
     O               0.000

     12 Sym. Ops., with inversion, found


                                    s                        frac. trans.

      isym =  1     identity                                     

 cryst.   s( 1) = (     1          0          0      )
                  (     0          1          0      )
                  (     0          0          1      )

 cart.    s( 1) = (  1.0000000  0.0000000  0.0000000 )
                  (  0.0000000  1.0000000  0.0000000 )
                  (  0.0000000  0.0000000  1.0000000 )


      isym =  2     180 deg rotation - cart. axis [1,-1,0]       

 cryst.   s( 2) = (    -1          0          0      )
                  (     0          0         -1      )
                  (     0         -1          0      )

 cart.    s( 2) = ( -0.0000000 -1.0000000 -0.0000000 )
                  ( -1.0000000 -0.0000000 -0.0000000 )
                  ( -0.0000000 -0.0000000 -1.0000000 )


      isym =  3     180 deg rotation - cart. axis [-1,0,1]       

 cryst.   s( 3) = (     0          0         -1      )
                  (     0         -1          0      )
                  (    -1          0          0      )

 cart.    s( 3) = ( -0.0000000 -0.0000000 -1.0000000 )
                  ( -0.0000000 -1.0000000 -0.0000000 )
                  ( -1.0000000 -0.0000000 -0.0000000 )


      isym =  4     180 deg rotation - cart. axis [0,1,-1]       

 cryst.   s( 4) = (     0         -1          0      )
                  (    -1          0          0      )
                  (     0          0         -1      )

 cart.    s( 4) = ( -1.0000000 -0.0000000 -0.0000000 )
                  ( -0.0000000 -0.0000000 -1.0000000 )
                  ( -0.0000000 -1.0000000 -0.0000000 )


      isym =  5     120 deg rotation - cart. axis [-1,-1,-1]     

 cryst.   s( 5) = (     0          1          0      )
                  (     0          0          1      )
                  (     1          0          0      )

 cart.    s( 5) = (  0.0000000  1.0000000  0.0000000 )
                  (  0.0000000  0.0000000  1.0000000 )
                  (  1.0000000  0.0000000  0.0000000 )


      isym =  6     120 deg rotation - cart. axis [1,1,1]        

 cryst.   s( 6) = (     0          0          1      )
                  (     1          0          0      )
                  (     0          1          0      )

 cart.    s( 6) = (  0.0000000  0.0000000  1.0000000 )
                  (  1.0000000  0.0000000  0.0000000 )
                  (  0.0000000  1.0000000  0.0000000 )


      isym =  7     inversion                                    

 cryst.   s( 7) = (    -1          0          0      )
                  (     0         -1          0      )
                  (     0          0         -1      )

 cart.    s( 7) = ( -1.0000000 -0.0000000 -0.0000000 )
                  ( -0.0000000 -1.0000000 -0.0000000 )
                  ( -0.0000000 -0.0000000 -1.0000000 )


      isym =  8     inv. 180 deg rotation - cart. axis [1,-1,0]  

 cryst.   s( 8) = (     1          0          0      )
                  (     0          0          1      )
                  (     0          1          0      )

 cart.    s( 8) = (  0.0000000  1.0000000  0.0000000 )
                  (  1.0000000  0.0000000  0.0000000 )
                  (  0.0000000  0.0000000  1.0000000 )


      isym =  9     inv. 180 deg rotation - cart. axis [-1,0,1]  

 cryst.   s( 9) = (     0          0          1      )
                  (     0          1          0      )
                  (     1          0          0      )

 cart.    s( 9) = (  0.0000000  0.0000000  1.0000000 )
                  (  0.0000000  1.0000000  0.0000000 )
                  (  1.0000000  0.0000000  0.0000000 )


      isym = 10     inv. 180 deg rotation - cart. axis [0,1,-1]  

 cryst.   s(10) = (     0          1          0      )
                  (     1          0          0      )
                  (     0          0          1      )

 cart.    s(10) = (  1.0000000  0.0000000  0.0000000 )
                  (  0.0000000  0.0000000  1.0000000 )
                  (  0.0000000  1.0000000  0.0000000 )


      isym = 11     inv. 120 deg rotation - cart. axis [-1,-1,-1]

 cryst.   s(11) = (     0         -1          0      )
                  (     0          0         -1      )
                  (    -1          0          0      )

 cart.    s(11) = ( -0.0000000 -1.0000000 -0.0000000 )
                  ( -0.0000000 -0.0000000 -1.0000000 )
                  ( -1.0000000 -0.0000000 -0.0000000 )


      isym = 12     inv. 120 deg rotation - cart. axis [1,1,1]   

 cryst.   s(12) = (     0          0         -1      )
                  (    -1          0          0      )
                  (     0         -1          0      )

 cart.    s(12) = ( -0.0000000 -0.0000000 -1.0000000 )
                  ( -1.0000000 -0.0000000 -0.0000000 )
                  ( -0.0000000 -1.0000000 -0.0000000 )


   Cartesian axes

     site n.     atom                  positions (alat units)
         1        Co1    tau(   1) = (   0.0000000   0.0000000   0.0000000  )
         2        Co2    tau(   2) = (   1.0862757   1.0862757   1.0862757  )
         3        O      tau(   3) = (   0.5431378   0.5431378   0.5431378  )
         4        O      tau(   4) = (   1.6294135   1.6294135   1.6294135  )

   Crystallographic axes

     site n.     atom                  positions (cryst. coord.)
         1        Co1    tau(   1) = (  0.0000000  0.0000000  0.0000000  )
         2        Co2    tau(   2) = (  0.5000000  0.5000000  0.5000000  )
         3        O      tau(   3) = (  0.2500000  0.2500000  0.2500000  )
         4        O      tau(   4) = (  0.7500000  0.7500000  0.7500000  )

     number of k points=    32 (tetrahedron method)
                       cart. coord. in units 2pi/alat
        k(    1) = (   0.0000000   0.0000000   0.0000000), wk =   0.0046296
        k(    2) = (   0.2669218  -0.0951035  -0.0951035), wk =   0.0277778
        k(    3) = (   0.5338435  -0.1902071  -0.1902071), wk =   0.0277778
        k(    4) = (  -0.8007653   0.2853106   0.2853106), wk =   0.0138889
        k(    5) = (   0.1718182   0.1718182  -0.1902071), wk =   0.0277778
        k(    6) = (   0.4387400   0.0767147  -0.2853106), wk =   0.0555556
        k(    7) = (  -0.8958688   0.5522323   0.1902071), wk =   0.0555556
        k(    8) = (  -0.6289471   0.4571288   0.0951035), wk =   0.0555556
        k(    9) = (  -0.3620253   0.3620253  -0.0000000), wk =   0.0277778
        k(   10) = (   0.3436365   0.3436365  -0.3804141), wk =   0.0277778
        k(   11) = (  -0.9909724   0.8191541   0.0951035), wk =   0.0555556
        k(   12) = (  -0.7240506   0.7240506   0.0000000), wk =   0.0277778
        k(   13) = (  -0.5154547  -0.5154547   0.5706212), wk =   0.0138889
        k(   14) = (   0.0767147   0.0767147   0.0767147), wk =   0.0092593
        k(   15) = (   0.3436365  -0.0183888  -0.0183888), wk =   0.0277778
        k(   16) = (  -0.9909724   0.4571288   0.4571288), wk =   0.0277778
        k(   17) = (  -0.7240506   0.3620253   0.3620253), wk =   0.0277778
        k(   18) = (  -0.4571288   0.2669218   0.2669218), wk =   0.0277778
        k(   19) = (   0.2485330   0.2485330  -0.1134923), wk =   0.0277778
        k(   20) = (  -1.0860759   0.7240506   0.3620253), wk =   0.0555556
        k(   21) = (  -0.8191541   0.6289471   0.2669218), wk =   0.0555556
        k(   22) = (  -0.5522323   0.5338435   0.1718182), wk =   0.0555556
        k(   23) = (  -0.6105583  -0.6105583   0.8375429), wk =   0.0277778
        k(   24) = (  -0.3436365  -0.7056618   0.7424394), wk =   0.0555556
        k(   25) = (  -0.0767147  -0.8007653   0.6473359), wk =   0.0277778
        k(   26) = (  -0.4387400  -0.4387400   0.6473359), wk =   0.0277778
        k(   27) = (   0.1534294   0.1534294   0.1534294), wk =   0.0092593
        k(   28) = (  -1.1811794   0.6289471   0.6289471), wk =   0.0277778
        k(   29) = (  -0.9142576   0.5338435   0.5338435), wk =   0.0277778
        k(   30) = (  -0.7056618  -0.7056618   1.1044647), wk =   0.0277778
        k(   31) = (  -0.4387400  -0.8007653   1.0093612), wk =   0.0277778
        k(   32) = (  -0.2301442  -0.2301442  -0.2301442), wk =   0.0046296

                       cryst. coord.
        k(    1) = (   0.0000000   0.0000000   0.0000000), wk =   0.0046296
        k(    2) = (   0.0000000   0.0000000   0.1666667), wk =   0.0277778
        k(    3) = (   0.0000000   0.0000000   0.3333333), wk =   0.0277778
        k(    4) = (  -0.0000000  -0.0000000  -0.5000000), wk =   0.0138889
        k(    5) = (   0.0000000   0.1666667   0.1666667), wk =   0.0277778
        k(    6) = (   0.0000000   0.1666667   0.3333333), wk =   0.0555556
        k(    7) = (  -0.0000000   0.1666667  -0.5000000), wk =   0.0555556
        k(    8) = (  -0.0000000   0.1666667  -0.3333333), wk =   0.0555556
        k(    9) = (   0.0000000   0.1666667  -0.1666667), wk =   0.0277778
        k(   10) = (   0.0000000   0.3333333   0.3333333), wk =   0.0277778
        k(   11) = (  -0.0000000   0.3333333  -0.5000000), wk =   0.0555556
        k(   12) = (  -0.0000000   0.3333333  -0.3333333), wk =   0.0277778
        k(   13) = (  -0.0000000  -0.5000000  -0.5000000), wk =   0.0138889
        k(   14) = (   0.1666667   0.1666667   0.1666667), wk =   0.0092593
        k(   15) = (   0.1666667   0.1666667   0.3333333), wk =   0.0277778
        k(   16) = (   0.1666667   0.1666667  -0.5000000), wk =   0.0277778
        k(   17) = (   0.1666667   0.1666667  -0.3333333), wk =   0.0277778
        k(   18) = (   0.1666667   0.1666667  -0.1666667), wk =   0.0277778
        k(   19) = (   0.1666667   0.3333333   0.3333333), wk =   0.0277778
        k(   20) = (   0.1666667   0.3333333  -0.5000000), wk =   0.0555556
        k(   21) = (   0.1666667   0.3333333  -0.3333333), wk =   0.0555556
        k(   22) = (   0.1666667   0.3333333  -0.1666667), wk =   0.0555556
        k(   23) = (   0.1666667  -0.5000000  -0.5000000), wk =   0.0277778
        k(   24) = (   0.1666667  -0.5000000  -0.3333333), wk =   0.0555556
        k(   25) = (   0.1666667  -0.5000000  -0.1666667), wk =   0.0277778
        k(   26) = (   0.1666667  -0.3333333  -0.3333333), wk =   0.0277778
        k(   27) = (   0.3333333   0.3333333   0.3333333), wk =   0.0092593
        k(   28) = (   0.3333333   0.3333333  -0.5000000), wk =   0.0277778
        k(   29) = (   0.3333333   0.3333333  -0.3333333), wk =   0.0277778
        k(   30) = (   0.3333333  -0.5000000  -0.5000000), wk =   0.0277778
        k(   31) = (   0.3333333  -0.5000000  -0.3333333), wk =   0.0277778
        k(   32) = (  -0.5000000  -0.5000000  -0.5000000), wk =   0.0046296

     Dense  grid:    18569 G-vectors     FFT dimensions: (  60,  60,  60)

     Smooth grid:     6541 G-vectors     FFT dimensions: (  40,  40,  40)

     Dynamical RAM for                 wfc:       0.13 MB

     Dynamical RAM for     wfc (w. buffer):       0.13 MB

     Dynamical RAM for             U proj.:       0.03 MB

     Dynamical RAM for  U proj. (w. buff.):       0.03 MB

     Dynamical RAM for           str. fact:       0.21 MB

     Dynamical RAM for           local pot:       0.00 MB

     Dynamical RAM for          nlocal pot:       0.16 MB

     Dynamical RAM for                qrad:       4.03 MB

     Dynamical RAM for          rho,v,vnew:       2.90 MB

     Dynamical RAM for           G-vectors:       0.28 MB

     Dynamical RAM for          h,s,v(r/c):       0.29 MB

     Dynamical RAM for          <psi|beta>:       0.03 MB

     Dynamical RAM for                 psi:       0.25 MB

     Dynamical RAM for                hpsi:       0.25 MB

     Dynamical RAM for                spsi:       0.25 MB

     Dynamical RAM for      wfcinit/wfcrot:       0.29 MB

     Dynamical RAM for           addusdens:      13.39 MB

     Estimated static dynamical RAM per process >      10.49 MB

     Estimated max dynamical RAM per process >      23.88 MB

     Estimated total dynamical RAM >      95.54 MB

     Check: negative core charge=   -0.000041
     Generating pointlists ...
     new r_m :   0.2019 (alat units)  1.6154 (a.u.) for type    1
     new r_m :   0.2019 (alat units)  1.6154 (a.u.) for type    2
     new r_m :   0.2019 (alat units)  1.6154 (a.u.) for type    3

     The potential is recalculated from file :
     ./tmp/CoO.save/charge-density


     HUBBARD ENERGY =    0.1611  (Ry)

     STARTING HUBBARD OCCUPATIONS:

     =================== HUBBARD OCCUPATIONS ===================
     ------------------------ ATOM    1 ------------------------
     Tr[ns(  1)] (up, down, total) =   4.96450  2.28204  7.24654
     Atomic magnetic moment for atom   1 =   2.68246
     SPIN  1
     eigenvalues:
       0.991  0.991  0.994  0.994  0.994
     eigenvectors (columns):
       0.641  0.253  0.000  0.526  0.499
       0.464 -0.368  0.577  0.131 -0.547
       0.087  0.585  0.577 -0.539  0.160
       0.253 -0.641 -0.000 -0.499  0.526
       0.550  0.217 -0.577 -0.408 -0.387
     occupation matrix ns (before diag.):
       0.993 -0.001 -0.001  0.000 -0.001
      -0.001  0.993  0.000 -0.001 -0.000
      -0.001  0.000  0.993  0.001 -0.000
       0.000 -0.001  0.001  0.993 -0.000
      -0.001 -0.000 -0.000 -0.000  0.993
     SPIN  2
     eigenvalues:
       0.042  0.138  0.138  0.982  0.982
     eigenvectors (columns):
       0.000 -0.650 -0.755  0.085 -0.002
       0.577  0.023 -0.065 -0.386  0.716
       0.577 -0.068  0.013 -0.427 -0.692
      -0.000  0.755 -0.650 -0.002 -0.085
      -0.577 -0.045 -0.052 -0.813  0.024
     occupation matrix ns (before diag.):
       0.144 -0.029 -0.029  0.000 -0.058
      -0.029  0.665 -0.311 -0.050  0.311
      -0.029 -0.311  0.665  0.050  0.311
       0.000 -0.050  0.050  0.144 -0.000
      -0.058  0.311  0.311 -0.000  0.665
     ------------------------ ATOM    2 ------------------------
     Tr[ns(  2)] (up, down, total) =   2.28205  4.96450  7.24655
     Atomic magnetic moment for atom   2 =  -2.68245
     SPIN  1
     eigenvalues:
       0.042  0.138  0.138  0.982  0.982
     eigenvectors (columns):
       0.000  0.496 -0.864  0.085 -0.002
       0.577 -0.035 -0.060 -0.393  0.712
       0.577  0.069 -0.000 -0.420 -0.696
      -0.000 -0.864 -0.496 -0.002 -0.085
      -0.577  0.034 -0.060 -0.813  0.016
     occupation matrix ns (before diag.):
       0.144 -0.029 -0.029  0.000 -0.058
      -0.029  0.665 -0.311 -0.050  0.311
      -0.029 -0.311  0.665  0.050  0.311
       0.000 -0.050  0.050  0.144 -0.000
      -0.058  0.311  0.311 -0.000  0.665
     SPIN  2
     eigenvalues:
       0.991  0.991  0.994  0.994  0.994
     eigenvectors (columns):
       0.641  0.252  0.000  0.524  0.501
       0.463 -0.369  0.577  0.133 -0.547
       0.088  0.585  0.577 -0.540  0.158
       0.252 -0.641 -0.000 -0.501  0.524
       0.551  0.217 -0.577 -0.407 -0.389
     occupation matrix ns (before diag.):
       0.993 -0.001 -0.001  0.000 -0.001
      -0.001  0.993  0.000 -0.001 -0.000
      -0.001  0.000  0.993  0.001 -0.000
       0.000 -0.001  0.001  0.993 -0.000
      -0.001 -0.000 -0.000 -0.000  0.993

     Number of occupied Hubbard levels =   14.4931

     Atomic wfc used for Hubbard projectors are orthogonalized

     Starting wfcs are   34 randomized atomic wfcs +    6 random wfcs
     Checking if some PAW data can be deallocated... 
       PAW data deallocated on    2 nodes for type:  3

     Band Structure Calculation
     Davidson diagonalization with overlap

     Computing kpt #:     1  of    64
     total cpu time spent up to now is        2.4 secs

     Computing kpt #:     2  of    64
     total cpu time spent up to now is        3.1 secs

     Computing kpt #:     3  of    64
     total cpu time spent up to now is        3.8 secs

     Computing kpt #:     4  of    64
     total cpu time spent up to now is        4.6 secs

     Computing kpt #:     5  of    64
     total cpu time spent up to now is        5.3 secs

     Computing kpt #:     6  of    64
     total cpu time spent up to now is        6.0 secs

     Computing kpt #:     7  of    64
     total cpu time spent up to now is        6.9 secs

     Computing kpt #:     8  of    64
     total cpu time spent up to now is        7.5 secs

     Computing kpt #:     9  of    64
     total cpu time spent up to now is        8.2 secs

     Computing kpt #:    10  of    64
     total cpu time spent up to now is        8.9 secs

     Computing kpt #:    11  of    64
     total cpu time spent up to now is        9.6 secs

     Computing kpt #:    12  of    64
     total cpu time spent up to now is       10.2 secs

     Computing kpt #:    13  of    64
     total cpu time spent up to now is       10.8 secs

     Computing kpt #:    14  of    64
     total cpu time spent up to now is       11.6 secs

     Computing kpt #:    15  of    64
     total cpu time spent up to now is       12.4 secs

     Computing kpt #:    16  of    64
     total cpu time spent up to now is       13.3 secs

     Computing kpt #:    17  of    64
     total cpu time spent up to now is       14.1 secs

     Computing kpt #:    18  of    64
     total cpu time spent up to now is       14.8 secs

     Computing kpt #:    19  of    64
     total cpu time spent up to now is       15.7 secs

     Computing kpt #:    20  of    64
     total cpu time spent up to now is       16.5 secs

     Computing kpt #:    21  of    64
     total cpu time spent up to now is       17.2 secs

     Computing kpt #:    22  of    64
     total cpu time spent up to now is       17.9 secs

     Computing kpt #:    23  of    64
     total cpu time spent up to now is       18.5 secs

     Computing kpt #:    24  of    64
     total cpu time spent up to now is       19.2 secs

     Computing kpt #:    25  of    64
     total cpu time spent up to now is       20.5 secs

     Computing kpt #:    26  of    64
     total cpu time spent up to now is       21.1 secs

     Computing kpt #:    27  of    64
     total cpu time spent up to now is       21.9 secs

     Computing kpt #:    28  of    64
     total cpu time spent up to now is       22.7 secs

     Computing kpt #:    29  of    64
     total cpu time spent up to now is       23.3 secs

     Computing kpt #:    30  of    64
     total cpu time spent up to now is       24.0 secs

     Computing kpt #:    31  of    64
     total cpu time spent up to now is       24.7 secs

     Computing kpt #:    32  of    64
     total cpu time spent up to now is       25.4 secs

     Computing kpt #:    33  of    64
     total cpu time spent up to now is       26.1 secs

     Computing kpt #:    34  of    64
     total cpu time spent up to now is       26.9 secs

     Computing kpt #:    35  of    64
     total cpu time spent up to now is       27.5 secs

     Computing kpt #:    36  of    64
     total cpu time spent up to now is       28.3 secs

     Computing kpt #:    37  of    64
     total cpu time spent up to now is       29.0 secs

     Computing kpt #:    38  of    64
     total cpu time spent up to now is       29.6 secs

     Computing kpt #:    39  of    64
     total cpu time spent up to now is       30.3 secs

     Computing kpt #:    40  of    64
     total cpu time spent up to now is       31.0 secs

     Computing kpt #:    41  of    64
     total cpu time spent up to now is       31.7 secs

     Computing kpt #:    42  of    64
     total cpu time spent up to now is       32.4 secs

     Computing kpt #:    43  of    64
     total cpu time spent up to now is       33.0 secs

     Computing kpt #:    44  of    64
     total cpu time spent up to now is       33.5 secs

     Computing kpt #:    45  of    64
     total cpu time spent up to now is       34.0 secs

     Computing kpt #:    46  of    64
     total cpu time spent up to now is       34.7 secs

     Computing kpt #:    47  of    64
     total cpu time spent up to now is       35.4 secs

     Computing kpt #:    48  of    64
     total cpu time spent up to now is       36.1 secs

     Computing kpt #:    49  of    64
     total cpu time spent up to now is       36.8 secs

     Computing kpt #:    50  of    64
     total cpu time spent up to now is       37.6 secs

     Computing kpt #:    51  of    64
     total cpu time spent up to now is       38.5 secs

     Computing kpt #:    52  of    64
     total cpu time spent up to now is       39.4 secs

     Computing kpt #:    53  of    64
     total cpu time spent up to now is       40.1 secs

     Computing kpt #:    54  of    64
     total cpu time spent up to now is       40.9 secs

     Computing kpt #:    55  of    64
     total cpu time spent up to now is       41.6 secs

     Computing kpt #:    56  of    64
     total cpu time spent up to now is       42.4 secs

     Computing kpt #:    57  of    64
     total cpu time spent up to now is       43.1 secs

     Computing kpt #:    58  of    64
     total cpu time spent up to now is       43.8 secs

     Computing kpt #:    59  of    64
     total cpu time spent up to now is       44.7 secs

     Computing kpt #:    60  of    64
     total cpu time spent up to now is       45.5 secs

     Computing kpt #:    61  of    64
     total cpu time spent up to now is       46.1 secs

     Computing kpt #:    62  of    64
     total cpu time spent up to now is       46.8 secs

     Computing kpt #:    63  of    64
     total cpu time spent up to now is       47.5 secs

     Computing kpt #:    64  of    64
     total cpu time spent up to now is       48.3 secs

     ethr =  2.17E-13,  avg # of iterations = 29.0

     total cpu time spent up to now is       48.4 secs

     End of band structure calculation

 ------ SPIN UP ------------


          k = 0.0000 0.0000 0.0000 (   811 PWs)   bands (ev):

   -81.4494 -77.9146 -45.6498 -44.3981 -44.3981 -41.6763 -41.2818 -41.2818
    -4.8596  -3.6580   5.9767   8.2675   8.2675   9.0606   9.6508   9.6508
    11.7551  11.7551  11.8242  13.3926  13.3926  13.6271  13.6271  16.6144
    18.3207  19.0349  19.0349  22.2935  24.6465  32.1030  32.1448  32.4681
    32.4681  36.4200  36.4200  38.0912  39.5362  40.5401  40.6719  40.6719

     occupation numbers 
     1.0000   1.0000   1.0000   1.0000   1.0000   1.0000   1.0000   1.0000
     1.0000   1.0000   1.0000   1.0000   1.0000   1.0000   1.0000   1.0000
     1.0000   1.0000   1.0000   1.0000   1.0000   1.0000   1.0000   0.0000
     0.0000   0.0000   0.0000   0.0000   0.0000   0.0000   0.0000   0.0000
     0.0000   0.0000   0.0000   0.0000   0.0000   0.0000   0.0000   0.0000

          k = 0.2669-0.0951-0.0951 (   815 PWs)   bands (ev):

   -81.4473 -77.9122 -45.6466 -44.4189 -44.4033 -41.6724 -41.3058 -41.2877
    -4.4918  -3.5335   6.5034   8.0065   8.3499   9.1350   9.2527   9.6754
    10.9146  11.6669  11.7995  12.3660  13.0664  13.5169  13.9155  17.2226
    18.6873  19.0389  19.6224  23.9126  24.4184  29.8338  30.4788  32.2099
    33.0433  33.8813  34.8783  36.9016  37.7151  40.4822  40.9042  42.2841

     occupation numbers 
     1.0000   1.0000   1.0000   1.0000   1.0000   1.0000   1.0000   1.0000
     1.0000   1.0000   1.0000   1.0000   1.0000   1.0000   1.0000   1.0000
     1.0000   1.0000   1.0000   1.0000   1.0000   1.0000   1.0000   0.0000
     0.0000   0.0000   0.0000   0.0000   0.0000   0.0000   0.0000   0.0000
     0.0000   0.0000   0.0000   0.0000   0.0000   0.0000   0.0000   0.0000

          k = 0.5338-0.1902-0.1902 (   827 PWs)   bands (ev):

   -81.4436 -77.9071 -45.6414 -44.4600 -44.4135 -41.6658 -41.3540 -41.2996
    -3.6812  -3.2277   6.9994   7.8075   8.1543   8.2968   9.2416   9.5010
    10.0892  11.3745  11.5214  12.2565  12.9787  13.1494  14.0195  18.0376
    18.8479  19.0826  21.6699  23.8540  25.8834  26.9503  27.4240  29.7591
    32.6451  33.1068  33.1930  34.9365  38.7159  41.0462  43.0505  43.1480

     occupation numbers 
     1.0000   1.0000   1.0000   1.0000   1.0000   1.0000   1.0000   1.0000
     1.0000   1.0000   1.0000   1.0000   1.0000   1.0000   1.0000   1.0000
     1.0000   1.0000   1.0000   1.0000   1.0000   1.0000   1.0000   0.0000
     0.0000   0.0000   0.0000   0.0000   0.0000   0.0000   0.0000   0.0000
     0.0000   0.0000   0.0000   0.0000   0.0000   0.0000   0.0000   0.0000

          k =-0.8008 0.2853 0.2853 (   810 PWs)   bands (ev):

   -81.4418 -77.9045 -45.6380 -44.4803 -44.4178 -41.6618 -41.3780 -41.3050
    -3.2610  -3.0034   6.8961   7.4279   7.6981   8.2083   8.7590   9.8925
    10.5998  11.0873  11.3359  12.1439  13.0758  13.5607  13.8131  18.5962
    19.0300  19.1228  23.2674  23.4170  24.3175  24.9500  28.3038  28.3276
    32.0158  32.4867  33.9497  34.0131  41.6907  41.8089  43.8085  44.0325

     occupation numbers 
     1.0000   1.0000   1.0000   1.0000   1.0000   1.0000   1.0000   1.0000
     1.0000   1.0000   1.0000   1.0000   1.0000   1.0000   1.0000   1.0000
     1.0000   1.0000   1.0000   1.0000   1.0000   1.0000   1.0000   0.0000
     0.0000   0.0000   0.0000   0.0000   0.0000   0.0000   0.0000   0.0000
     0.0000   0.0000   0.0000   0.0000   0.0000   0.0000   0.0000   0.0000

          k = 0.1718 0.1718-0.1902 (   811 PWs)   bands (ev):

   -81.4473 -77.9122 -45.6465 -44.4188 -44.4032 -41.6724 -41.3057 -41.2876
    -4.4662  -3.5675   6.5830   7.9695   8.3578   9.1020   9.3275   9.6740
    10.7117  11.7604  11.8711  12.3347  12.7321  13.5502  14.2442  17.2825
    18.8637  18.9492  19.4675  23.5172  24.8336  29.7801  30.1883  32.1979
    33.1176  34.6415  35.0387  36.6897  37.4490  39.1313  42.1857  42.2316

     occupation numbers 
     1.0000   1.0000   1.0000   1.0000   1.0000   1.0000   1.0000   1.0000
     1.0000   1.0000   1.0000   1.0000   1.0000   1.0000   1.0000   1.0000
     1.0000   1.0000   1.0000   1.0000   1.0000   1.0000   1.0000   0.0000
     0.0000   0.0000   0.0000   0.0000   0.0000   0.0000   0.0000   0.0000
     0.0000   0.0000   0.0000   0.0000   0.0000   0.0000   0.0000   0.0000

          k = 0.4387 0.0767-0.2853 (   821 PWs)   bands (ev):

   -81.4443 -77.9083 -45.6428 -44.4457 -44.4148 -41.6674 -41.3373 -41.3010
    -3.8558  -3.3612   7.1866   7.7682   8.1598   8.7425   8.8753   9.9827
    10.0824  10.9217  11.8635  12.4103  12.7814  13.2577  13.8484  17.8073
    18.8235  19.0734  21.2039  23.6575  26.4372  27.9994  28.4872  30.0479
    31.3360  31.5800  35.0319  37.1263  38.5563  38.9128  41.2833  44.9099

     occupation numbers 
     1.0000   1.0000   1.0000   1.0000   1.0000   1.0000   1.0000   1.0000
     1.0000   1.0000   1.0000   1.0000   1.0000   1.0000   1.0000   1.0000
     1.0000   1.0000   1.0000   1.0000   1.0000   1.0000   1.0000   0.0000
     0.0000   0.0000   0.0000   0.0000   0.0000   0.0000   0.0000   0.0000
     0.0000   0.0000   0.0000   0.0000   0.0000   0.0000   0.0000   0.0000

          k =-0.8959 0.5522 0.1902 (   832 PWs)   bands (ev):

   -81.4414 -77.9044 -45.6385 -44.4702 -44.4295 -41.6621 -41.3660 -41.3179
    -3.2497  -3.0314   7.1132   7.5519   7.8946   8.3070   8.8275   9.2027
    10.5376  10.9059  11.7557  12.5456  12.7176  13.2807  13.4034  18.5263
    18.9854  19.1783  23.2379  23.5994  25.5331  26.1515  27.6038  27.8450
    30.4064  31.2544  34.9905  36.2124  39.9130  40.5944  42.8983  43.8271

     occupation numbers 
     1.0000   1.0000   1.0000   1.0000   1.0000   1.0000   1.0000   1.0000
     1.0000   1.0000   1.0000   1.0000   1.0000   1.0000   1.0000   1.0000
     1.0000   1.0000   1.0000   1.0000   1.0000   1.0000   1.0000   0.0000
     0.0000   0.0000   0.0000   0.0000   0.0000   0.0000   0.0000   0.0000
     0.0000   0.0000   0.0000   0.0000   0.0000   0.0000   0.0000   0.0000

          k =-0.6289 0.4571 0.0951 (   831 PWs)   bands (ev):

   -81.4414 -77.9044 -45.6385 -44.4704 -44.4294 -41.6621 -41.3661 -41.3178
    -3.2221  -3.0629   7.0226   7.8163   7.8887   8.3511   8.6362   9.2538
    10.4399  10.9700  11.6778  12.3850  12.8191  13.1473  13.6182  18.4736
    18.9262  19.4255  22.6341  24.0136  25.6675  26.2841  27.5812  27.9771
    30.4406  30.7483  35.3146  36.0417  40.0320  40.3550  42.1097  43.9612

     occupation numbers 
     1.0000   1.0000   1.0000   1.0000   1.0000   1.0000   1.0000   1.0000
     1.0000   1.0000   1.0000   1.0000   1.0000   1.0000   1.0000   1.0000
     1.0000   1.0000   1.0000   1.0000   1.0000   1.0000   1.0000   0.0000
     0.0000   0.0000   0.0000   0.0000   0.0000   0.0000   0.0000   0.0000
     0.0000   0.0000   0.0000   0.0000   0.0000   0.0000   0.0000   0.0000

          k =-0.3620 0.3620-0.0000 (   815 PWs)   bands (ev):

   -81.4443 -77.9083 -45.6426 -44.4458 -44.4146 -41.6672 -41.3374 -41.3008
    -3.8909  -3.3218   7.1916   7.8080   8.1627   8.7448   8.9365   9.8719
     9.9454  10.9597  11.8087  12.6642  12.8566  13.0108  13.9515  17.7568
    18.8550  19.1995  20.9275  23.9586  26.1775  27.9824  28.5095  30.2493
    31.4384  31.8857  34.2758  37.8585  38.1823  38.4160  40.9186  44.8101

     occupation numbers 
     1.0000   1.0000   1.0000   1.0000   1.0000   1.0000   1.0000   1.0000
     1.0000   1.0000   1.0000   1.0000   1.0000   1.0000   1.0000   1.0000
     1.0000   1.0000   1.0000   1.0000   1.0000   1.0000   1.0000   0.0000
     0.0000   0.0000   0.0000   0.0000   0.0000   0.0000   0.0000   0.0000
     0.0000   0.0000   0.0000   0.0000   0.0000   0.0000   0.0000   0.0000

          k = 0.3436 0.3436-0.3804 (   827 PWs)   bands (ev):

   -81.4437 -77.9072 -45.6414 -44.4602 -44.4135 -41.6655 -41.3541 -41.2996
    -3.5557  -3.3695   7.3234   7.5105   7.9524   8.2621   9.2395   9.9846
    10.1170  10.8238  11.9504  12.2753  12.4228  13.3534  14.3239  18.0438
    19.1179  19.2285  20.7818  22.9876  27.0131  27.3814  27.5640  29.6795
    31.8500  33.0837  33.9483  36.0155  37.2442  41.3837  42.1515  42.8594

     occupation numbers 
     1.0000   1.0000   1.0000   1.0000   1.0000   1.0000   1.0000   1.0000
     1.0000   1.0000   1.0000   1.0000   1.0000   1.0000   1.0000   1.0000
     1.0000   1.0000   1.0000   1.0000   1.0000   1.0000   1.0000   0.0000
     0.0000   0.0000   0.0000   0.0000   0.0000   0.0000   0.0000   0.0000
     0.0000   0.0000   0.0000   0.0000   0.0000   0.0000   0.0000   0.0000

          k =-0.9910 0.8192 0.0951 (   834 PWs)   bands (ev):

   -81.4415 -77.9044 -45.6384 -44.4705 -44.4295 -41.6619 -41.3662 -41.3179
    -3.1779  -3.1100   6.9169   7.6924   7.9736   8.2638   8.5164   9.9318
    10.2537  10.9919  11.6341  12.1625  12.7184  13.2461  13.8698  18.5141
    19.0027  19.4439  21.8960  23.1536  26.2832  27.0338  27.6600  28.3794
    29.6227  31.3667  34.8869  37.4954  38.8855  41.4628  41.6614  42.6199

     occupation numbers 
     1.0000   1.0000   1.0000   1.0000   1.0000   1.0000   1.0000   1.0000
     1.0000   1.0000   1.0000   1.0000   1.0000   1.0000   1.0000   1.0000
     1.0000   1.0000   1.0000   1.0000   1.0000   1.0000   1.0000   0.0000
     0.0000   0.0000   0.0000   0.0000   0.0000   0.0000   0.0000   0.0000
     0.0000   0.0000   0.0000   0.0000   0.0000   0.0000   0.0000   0.0000

          k =-0.7241 0.7241 0.0000 (   831 PWs)   bands (ev):

   -81.4402 -77.9029 -45.6368 -44.4566 -44.4564 -41.6600 -41.3495 -41.3494
    -2.9800  -2.9796   7.4215   7.5669   7.7074   8.4223   8.4397   9.0867
    10.0361  11.2632  11.5285  12.6060  12.8982  13.0597  13.2590  18.7447
    19.1532  19.2526  23.8493  24.4328  25.2272  26.1442  26.3024  26.7404
    30.3760  31.0391  36.0234  37.2420  39.3900  40.2435  41.4776  41.8924

     occupation numbers 
     1.0000   1.0000   1.0000   1.0000   1.0000   1.0000   1.0000   1.0000
     1.0000   1.0000   1.0000   1.0000   1.0000   1.0000   1.0000   1.0000
     1.0000   1.0000   1.0000   1.0000   1.0000   1.0000   1.0000   0.0000
     0.0000   0.0000   0.0000   0.0000   0.0000   0.0000   0.0000   0.0000
     0.0000   0.0000   0.0000   0.0000   0.0000   0.0000   0.0000   0.0000

          k =-0.5155-0.5155 0.5706 (   824 PWs)   bands (ev):

   -81.4420 -77.9046 -45.6383 -44.4807 -44.4183 -41.6617 -41.3784 -41.3053
    -3.2642  -3.0058   6.3545   7.4557   8.1271   8.4796   8.5414  10.1862
    10.5916  10.7776  12.0233  12.1376  12.3990  13.2805  14.2614  18.6429
    19.3488  19.6221  20.4013  22.4621  25.9040  27.1051  28.3383  28.4446
    30.5157  32.4061  34.0247  37.2330  38.0675  39.8053  43.0675  43.8283

     occupation numbers 
     1.0000   1.0000   1.0000   1.0000   1.0000   1.0000   1.0000   1.0000
     1.0000   1.0000   1.0000   1.0000   1.0000   1.0000   1.0000   1.0000
     1.0000   1.0000   1.0000   1.0000   1.0000   1.0000   1.0000   0.0000
     0.0000   0.0000   0.0000   0.0000   0.0000   0.0000   0.0000   0.0000
     0.0000   0.0000   0.0000   0.0000   0.0000   0.0000   0.0000   0.0000

          k = 0.0767 0.0767 0.0767 (   808 PWs)   bands (ev):

   -81.4495 -77.9145 -45.6494 -44.3981 -44.3981 -41.6761 -41.2818 -41.2818
    -4.7906  -3.7535   6.1532   8.2791   8.2791   9.0392   9.6562   9.6562
    11.4411  11.7181  11.7181  13.1402  13.1402  13.9341  13.9341  16.9803
    18.4302  18.9907  18.9907  22.0242  24.9054  30.1903  32.7018  32.7018
    34.1298  36.2005  36.2005  38.3208  39.0317  39.8534  39.8534  41.3043

     occupation numbers 
     1.0000   1.0000   1.0000   1.0000   1.0000   1.0000   1.0000   1.0000
     1.0000   1.0000   1.0000   1.0000   1.0000   1.0000   1.0000   1.0000
     1.0000   1.0000   1.0000   1.0000   1.0000   1.0000   1.0000   0.0000
     0.0000   0.0000   0.0000   0.0000   0.0000   0.0000   0.0000   0.0000
     0.0000   0.0000   0.0000   0.0000   0.0000   0.0000   0.0000   0.0000

          k = 0.3436-0.0184-0.0184 (   827 PWs)   bands (ev):

   -81.4474 -77.9121 -45.6469 -44.4191 -44.4034 -41.6728 -41.3059 -41.2878
    -4.4033  -3.6450   6.6627   7.8864   8.3533   9.1799   9.3567   9.6852
    10.7831  11.5598  11.7212  12.3728  13.4046  13.4169  13.5836  17.4069
    18.4045  19.0963  20.2048  23.0526  25.2656  29.6076  29.9511  32.4903
    32.9761  33.2687  34.6532  38.2179  38.9080  39.0495  41.8033  42.6262

     occupation numbers 
     1.0000   1.0000   1.0000   1.0000   1.0000   1.0000   1.0000   1.0000
     1.0000   1.0000   1.0000   1.0000   1.0000   1.0000   1.0000   1.0000
     1.0000   1.0000   1.0000   1.0000   1.0000   1.0000   1.0000   0.0000
     0.0000   0.0000   0.0000   0.0000   0.0000   0.0000   0.0000   0.0000
     0.0000   0.0000   0.0000   0.0000   0.0000   0.0000   0.0000   0.0000

          k =-0.9910 0.4571 0.4571 (   819 PWs)   bands (ev):

   -81.4435 -77.9070 -45.6411 -44.4597 -44.4134 -41.6655 -41.3539 -41.2994
    -3.6637  -3.2430   6.8968   7.6803   8.1007   8.2884   9.5445   9.5826
    10.1133  11.5135  11.7499  12.1601  12.6008  13.5207  13.5804  18.1601
    18.5357  19.1882  22.2643  23.1919  26.4124  26.8556  27.5016  29.4046
    32.1866  32.3401  33.4546  36.2857  40.5171  40.8480  41.3959  43.7559

     occupation numbers 
     1.0000   1.0000   1.0000   1.0000   1.0000   1.0000   1.0000   1.0000
     1.0000   1.0000   1.0000   1.0000   1.0000   1.0000   1.0000   1.0000
     1.0000   1.0000   1.0000   1.0000   1.0000   1.0000   1.0000   0.0000
     0.0000   0.0000   0.0000   0.0000   0.0000   0.0000   0.0000   0.0000
     0.0000   0.0000   0.0000   0.0000   0.0000   0.0000   0.0000   0.0000

          k =-0.7241 0.3620 0.3620 (   826 PWs)   bands (ev):

   -81.4419 -77.9045 -45.6385 -44.4807 -44.4181 -41.6620 -41.3783 -41.3052
    -3.2618  -3.0040   6.7320   7.3351   7.9904   8.1861   8.7812   9.8503
    10.5961  11.2173  11.2513  12.2146  13.1191  13.2003  14.0276  18.6122
    19.0994  19.1769  22.0945  23.4183  24.6715  25.7997  28.2839  28.3794
    31.3561  33.1164  33.1531  35.1892  39.4621  43.1161  43.7575  43.7781

     occupation numbers 
     1.0000   1.0000   1.0000   1.0000   1.0000   1.0000   1.0000   1.0000
     1.0000   1.0000   1.0000   1.0000   1.0000   1.0000   1.0000   1.0000
     1.0000   1.0000   1.0000   1.0000   1.0000   1.0000   1.0000   0.0000
     0.0000   0.0000   0.0000   0.0000   0.0000   0.0000   0.0000   0.0000
     0.0000   0.0000   0.0000   0.0000   0.0000   0.0000   0.0000   0.0000

          k =-0.4571 0.2669 0.2669 (   824 PWs)   bands (ev):

   -81.4436 -77.9071 -45.6413 -44.4601 -44.4135 -41.6656 -41.3541 -41.2996
    -3.6424  -3.2758   7.1866   7.7336   8.1018   8.2844   9.1684   9.5484
    10.0924  11.0971  11.6849  12.2381  12.7606  13.3225  14.2913  18.0089
    19.0471  19.1924  20.9830  23.5453  26.4279  27.0427  27.4580  30.0068
    32.2316  33.6078  33.9110  34.5022  37.2115  42.0711  42.2484  43.2491

     occupation numbers 
     1.0000   1.0000   1.0000   1.0000   1.0000   1.0000   1.0000   1.0000
     1.0000   1.0000   1.0000   1.0000   1.0000   1.0000   1.0000   1.0000
     1.0000   1.0000   1.0000   1.0000   1.0000   1.0000   1.0000   0.0000
     0.0000   0.0000   0.0000   0.0000   0.0000   0.0000   0.0000   0.0000
     0.0000   0.0000   0.0000   0.0000   0.0000   0.0000   0.0000   0.0000

          k = 0.2485 0.2485-0.1135 (   815 PWs)   bands (ev):

   -81.4473 -77.9122 -45.6468 -44.4187 -44.4030 -41.6728 -41.3055 -41.2875
    -4.3310  -3.7338   6.8637   7.7773   8.3694   9.1109   9.5805   9.6839
    10.3451  11.5117  11.8480  12.6293  12.6808  13.2792  14.3824  17.5171
    18.6589  18.9175  20.0295  22.7048  25.7365  28.8580  30.4505  31.3891
    33.4161  35.0477  35.6913  36.2062  37.8324  39.0173  42.2242  43.4087

     occupation numbers 
     1.0000   1.0000   1.0000   1.0000   1.0000   1.0000   1.0000   1.0000
     1.0000   1.0000   1.0000   1.0000   1.0000   1.0000   1.0000   1.0000
     1.0000   1.0000   1.0000   1.0000   1.0000   1.0000   1.0000   0.0000
     0.0000   0.0000   0.0000   0.0000   0.0000   0.0000   0.0000   0.0000
     0.0000   0.0000   0.0000   0.0000   0.0000   0.0000   0.0000   0.0000

          k =-1.0861 0.7241 0.3620 (   819 PWs)   bands (ev):

   -81.4443 -77.9083 -45.6426 -44.4457 -44.4148 -41.6673 -41.3372 -41.3010
    -3.7596  -3.4657   7.1763   7.7059   8.1551   8.7390   8.7667  10.1881
    10.4502  10.8488  11.6374  12.3682  12.8383  13.2205  13.7463  17.9631
    18.6231  19.0013  21.7723  23.0499  27.0272  28.0522  28.3710  29.2151
    31.2385  31.7515  35.7750  36.3717  39.4126  39.9626  42.1688  43.3369

     occupation numbers 
     1.0000   1.0000   1.0000   1.0000   1.0000   1.0000   1.0000   1.0000
     1.0000   1.0000   1.0000   1.0000   1.0000   1.0000   1.0000   1.0000
     1.0000   1.0000   1.0000   1.0000   1.0000   1.0000   1.0000   0.0000
     0.0000   0.0000   0.0000   0.0000   0.0000   0.0000   0.0000   0.0000
     0.0000   0.0000   0.0000   0.0000   0.0000   0.0000   0.0000   0.0000

          k =-0.8192 0.6289 0.2669 (   827 PWs)   bands (ev):

   -81.4414 -77.9044 -45.6383 -44.4701 -44.4293 -41.6619 -41.3658 -41.3177
    -3.2505  -3.0302   7.1743   7.3087   7.9323   8.2668   8.7966   9.4621
    10.5741  10.9219  11.7261  12.4938  12.7192  13.1562  13.6089  18.5823
    18.9915  19.1268  22.7875  23.2834  25.7276  26.5606  27.6546  27.9309
    30.2741  31.5595  34.7989  36.5509  39.9183  41.5260  42.6694  43.0448

     occupation numbers 
     1.0000   1.0000   1.0000   1.0000   1.0000   1.0000   1.0000   1.0000
     1.0000   1.0000   1.0000   1.0000   1.0000   1.0000   1.0000   1.0000
     1.0000   1.0000   1.0000   1.0000   1.0000   1.0000   1.0000   0.0000
     0.0000   0.0000   0.0000   0.0000   0.0000   0.0000   0.0000   0.0000
     0.0000   0.0000   0.0000   0.0000   0.0000   0.0000   0.0000   0.0000

          k =-0.5522 0.5338 0.1718 (   827 PWs)   bands (ev):

   -81.4414 -77.9044 -45.6383 -44.4704 -44.4293 -41.6618 -41.3660 -41.3177
    -3.1749  -3.1133   6.9496   7.7992   7.9831   8.3267   8.5116   9.5498
    10.3477  11.0042  11.6605  12.1715  12.8171  13.1736  13.8044  18.4720
    18.9442  19.5697  22.0372  23.6210  26.0698  26.7757  27.6046  28.2798
    29.9793  30.8040  35.5379  36.2204  39.5384  41.1057  41.4550  43.8873

     occupation numbers 
     1.0000   1.0000   1.0000   1.0000   1.0000   1.0000   1.0000   1.0000
     1.0000   1.0000   1.0000   1.0000   1.0000   1.0000   1.0000   1.0000
     1.0000   1.0000   1.0000   1.0000   1.0000   1.0000   1.0000   0.0000
     0.0000   0.0000   0.0000   0.0000   0.0000   0.0000   0.0000   0.0000
     0.0000   0.0000   0.0000   0.0000   0.0000   0.0000   0.0000   0.0000

          k =-0.6106-0.6106 0.8375 (   817 PWs)   bands (ev):

   -81.4436 -77.9071 -45.6410 -44.4599 -44.4132 -41.6653 -41.3539 -41.2993
    -3.4995  -3.4234   7.1634   7.4317   7.9614   8.2541   9.3846  10.1397
    10.3215  10.7947  11.9084  12.3749  12.5497  13.0330  14.1648  18.1313
    18.8468  19.2255  21.3190  22.6647  26.9618  27.5747  28.2749  28.7203
    31.7190  32.3613  34.0379  37.3364  39.0820  40.1311  40.7800  42.6881

     occupation numbers 
     1.0000   1.0000   1.0000   1.0000   1.0000   1.0000   1.0000   1.0000
     1.0000   1.0000   1.0000   1.0000   1.0000   1.0000   1.0000   1.0000
     1.0000   1.0000   1.0000   1.0000   1.0000   1.0000   1.0000   0.0000
     0.0000   0.0000   0.0000   0.0000   0.0000   0.0000   0.0000   0.0000
     0.0000   0.0000   0.0000   0.0000   0.0000   0.0000   0.0000   0.0000

          k =-0.3436-0.7057 0.7424 (   829 PWs)   bands (ev):

   -81.4415 -77.9044 -45.6383 -44.4703 -44.4294 -41.6618 -41.3660 -41.3178
    -3.2244  -3.0598   6.9911   7.4825   7.9556   8.2470   8.6422   9.8127
    10.4414  10.9905  11.6013  12.3795  12.6417  13.2133  13.8048  18.5686
    19.0047  19.2444  22.1876  23.0554  26.1313  26.9262  27.6878  28.1374
    29.9091  31.6939  34.5958  37.3399  39.5880  41.6450  42.0864  42.2123

     occupation numbers 
     1.0000   1.0000   1.0000   1.0000   1.0000   1.0000   1.0000   1.0000
     1.0000   1.0000   1.0000   1.0000   1.0000   1.0000   1.0000   1.0000
     1.0000   1.0000   1.0000   1.0000   1.0000   1.0000   1.0000   0.0000
     0.0000   0.0000   0.0000   0.0000   0.0000   0.0000   0.0000   0.0000
     0.0000   0.0000   0.0000   0.0000   0.0000   0.0000   0.0000   0.0000

          k =-0.0767-0.8008 0.6473 (   846 PWs)   bands (ev):

   -81.4403 -77.9030 -45.6372 -44.4569 -44.4569 -41.6602 -41.3498 -41.3498
    -2.9801  -2.9796   7.4495   7.5031   7.7493   8.3492   8.4994   9.0821
    10.0355  11.2613  11.5213  12.6804  12.7640  13.1806  13.1899  18.7448
    19.1604  19.2405  24.0377  24.1304  25.4758  25.8828  26.4460  26.7070
    30.4098  30.9772  36.5113  36.6015  39.8446  39.9998  41.6259  41.6792

     occupation numbers 
     1.0000   1.0000   1.0000   1.0000   1.0000   1.0000   1.0000   1.0000
     1.0000   1.0000   1.0000   1.0000   1.0000   1.0000   1.0000   1.0000
     1.0000   1.0000   1.0000   1.0000   1.0000   1.0000   1.0000   0.0000
     0.0000   0.0000   0.0000   0.0000   0.0000   0.0000   0.0000   0.0000
     0.0000   0.0000   0.0000   0.0000   0.0000   0.0000   0.0000   0.0000

          k =-0.4387-0.4387 0.6473 (   831 PWs)   bands (ev):

   -81.4420 -77.9046 -45.6386 -44.4808 -44.4182 -41.6620 -41.3785 -41.3053
    -3.2634  -3.0052   6.4639   7.3988   8.1461   8.2788   8.7251   9.9626
    10.5927  11.0000  11.5723  12.3426  12.6522  13.2219  14.2052  18.6340
    19.2918  19.3427  20.9933  22.7198  25.5593  26.7217  28.3103  28.4331
    30.7429  32.5830  33.7859  36.7297  37.8738  41.2698  43.3414  43.8052

     occupation numbers 
     1.0000   1.0000   1.0000   1.0000   1.0000   1.0000   1.0000   1.0000
     1.0000   1.0000   1.0000   1.0000   1.0000   1.0000   1.0000   1.0000
     1.0000   1.0000   1.0000   1.0000   1.0000   1.0000   1.0000   0.0000
     0.0000   0.0000   0.0000   0.0000   0.0000   0.0000   0.0000   0.0000
     0.0000   0.0000   0.0000   0.0000   0.0000   0.0000   0.0000   0.0000

          k = 0.1534 0.1534 0.1534 (   817 PWs)   bands (ev):

   -81.4496 -77.9143 -45.6494 -44.3980 -44.3980 -41.6763 -41.2817 -41.2817
    -4.5955  -4.0004   6.5630   8.3023   8.3023   8.9479   9.6657   9.6657
    10.7480  11.6406  11.6406  12.9280  12.9280  14.2610  14.2610  17.4453
    18.8974  18.8974  19.0312  21.2547  25.6511  28.4218  33.3663  33.3663
    35.4451  35.4451  36.0121  38.3025  39.1133  39.3701  39.3701  40.5391

     occupation numbers 
     1.0000   1.0000   1.0000   1.0000   1.0000   1.0000   1.0000   1.0000
     1.0000   1.0000   1.0000   1.0000   1.0000   1.0000   1.0000   1.0000
     1.0000   1.0000   1.0000   1.0000   1.0000   1.0000   1.0000   0.0000
     0.0000   0.0000   0.0000   0.0000   0.0000   0.0000   0.0000   0.0000
     0.0000   0.0000   0.0000   0.0000   0.0000   0.0000   0.0000   0.0000

          k =-1.1812 0.6289 0.6289 (   829 PWs)   bands (ev):

   -81.4474 -77.9121 -45.6469 -44.4192 -44.4033 -41.6729 -41.3059 -41.2878
    -4.2179  -3.8613   6.9883   7.6543   8.3649   9.1552   9.6280   9.6945
    10.4801  11.3114  11.6957  12.5204  13.0837  13.3155  13.9491  17.6878
    18.2142  19.0640  20.9857  22.0283  26.3283  28.1994  30.2206  31.9231
    33.4580  33.7558  34.3844  37.9947  39.6693  40.3956  40.9062  42.0952

     occupation numbers 
     1.0000   1.0000   1.0000   1.0000   1.0000   1.0000   1.0000   1.0000
     1.0000   1.0000   1.0000   1.0000   1.0000   1.0000   1.0000   1.0000
     1.0000   1.0000   1.0000   1.0000   1.0000   1.0000   1.0000   0.0000
     0.0000   0.0000   0.0000   0.0000   0.0000   0.0000   0.0000   0.0000
     0.0000   0.0000   0.0000   0.0000   0.0000   0.0000   0.0000   0.0000

          k =-0.9143 0.5338 0.5338 (   815 PWs)   bands (ev):

   -81.4436 -77.9071 -45.6409 -44.4597 -44.4133 -41.6654 -41.3537 -41.2994
    -3.5954  -3.3183   6.9519   7.5166   8.0370   8.2660   9.5265   9.9655
    10.1386  11.4441  11.6578  12.4261  12.5222  13.0411  13.8799  18.2575
    18.4747  19.2589  22.1976  22.5332  26.8501  27.3961  27.7056  28.9623
    31.9007  31.9428  33.8530  37.9227  39.3391  40.4590  41.4469  42.4725

     occupation numbers 
     1.0000   1.0000   1.0000   1.0000   1.0000   1.0000   1.0000   1.0000
     1.0000   1.0000   1.0000   1.0000   1.0000   1.0000   1.0000   1.0000
     1.0000   1.0000   1.0000   1.0000   1.0000   1.0000   1.0000   0.0000
     0.0000   0.0000   0.0000   0.0000   0.0000   0.0000   0.0000   0.0000
     0.0000   0.0000   0.0000   0.0000   0.0000   0.0000   0.0000   0.0000

          k =-0.7057-0.7057 1.1045 (   821 PWs)   bands (ev):

   -81.4473 -77.9121 -45.6466 -44.4190 -44.4031 -41.6727 -41.3057 -41.2877
    -4.1133  -3.9740   7.1796   7.5141   8.3724   9.1270   9.6940   9.9204
    10.0656  11.2757  11.7487  12.7806  12.8723  13.0708  14.2676  17.7231
    18.3465  18.9762  20.9634  21.8536  26.8451  27.5941  30.6721  31.0922
    33.7994  34.5755  34.6392  37.4706  38.0986  40.6238  41.9979  42.4316

     occupation numbers 
     1.0000   1.0000   1.0000   1.0000   1.0000   1.0000   1.0000   1.0000
     1.0000   1.0000   1.0000   1.0000   1.0000   1.0000   1.0000   1.0000
     1.0000   1.0000   1.0000   1.0000   1.0000   1.0000   1.0000   0.0000
     0.0000   0.0000   0.0000   0.0000   0.0000   0.0000   0.0000   0.0000
     0.0000   0.0000   0.0000   0.0000   0.0000   0.0000   0.0000   0.0000

          k =-0.4387-0.8008 1.0094 (   814 PWs)   bands (ev):

   -81.4442 -77.9083 -45.6424 -44.4455 -44.4148 -41.6672 -41.3370 -41.3010
    -3.6571  -3.5722   7.1711   7.6817   8.1524   8.7184   8.7389  10.2788
    10.7121  10.9617  11.2011  12.7032  12.7417  13.0097  13.7559  18.1101
    18.4504  18.9977  22.3440  22.4649  27.6643  27.8565  28.2552  28.6774
    31.4372  31.7349  35.9632  36.0264  40.6972  40.8202  41.8908  42.0529

     occupation numbers 
     1.0000   1.0000   1.0000   1.0000   1.0000   1.0000   1.0000   1.0000
     1.0000   1.0000   1.0000   1.0000   1.0000   1.0000   1.0000   1.0000
     1.0000   1.0000   1.0000   1.0000   1.0000   1.0000   1.0000   0.0000
     0.0000   0.0000   0.0000   0.0000   0.0000   0.0000   0.0000   0.0000
     0.0000   0.0000   0.0000   0.0000   0.0000   0.0000   0.0000   0.0000

          k =-0.2301-0.2301-0.2301 (   828 PWs)   bands (ev):

   -81.4496 -77.9143 -45.6496 -44.3981 -44.3981 -41.6766 -41.2818 -41.2818
    -4.3233  -4.2980   6.8203   8.3138   8.3138   8.8539   9.6698   9.6698
    10.4238  11.6002  11.6002  12.8527  12.8527  14.3900  14.3901  17.5497
    18.8512  18.8512  19.9926  20.2967  26.6456  27.0858  34.2673  34.2673
    34.4518  34.4518  37.2891  37.5150  39.5555  39.5555  39.8351  39.8351

     occupation numbers 
     1.0000   1.0000   1.0000   1.0000   1.0000   1.0000   1.0000   1.0000
     1.0000   1.0000   1.0000   1.0000   1.0000   1.0000   1.0000   1.0000
     1.0000   1.0000   1.0000   1.0000   1.0000   1.0000   1.0000   0.0000
     0.0000   0.0000   0.0000   0.0000   0.0000   0.0000   0.0000   0.0000
     0.0000   0.0000   0.0000   0.0000   0.0000   0.0000   0.0000   0.0000

 ------ SPIN DOWN ----------


          k = 0.0000 0.0000 0.0000 (   811 PWs)   bands (ev):

   -81.4490 -77.9150 -45.6487 -44.3980 -44.3980 -41.6769 -41.2821 -41.2821
    -4.8596  -3.6580   5.9769   8.2677   8.2677   9.0610   9.6512   9.6512
    11.7546  11.7546  11.8241  13.3926  13.3926  13.6273  13.6273  16.6142
    18.3204  19.0346  19.0346  22.2936  24.6465  32.1031  32.1448  32.4681
    32.4681  36.4200  36.4200  38.0913  39.5363  40.5400  40.6719  40.6719

     occupation numbers 
     1.0000   1.0000   1.0000   1.0000   1.0000   1.0000   1.0000   1.0000
     1.0000   1.0000   1.0000   1.0000   1.0000   1.0000   1.0000   1.0000
     1.0000   1.0000   1.0000   1.0000   1.0000   1.0000   1.0000   0.0000
     0.0000   0.0000   0.0000   0.0000   0.0000   0.0000   0.0000   0.0000
     0.0000   0.0000   0.0000   0.0000   0.0000   0.0000   0.0000   0.0000

          k = 0.2669-0.0951-0.0951 (   815 PWs)   bands (ev):

   -81.4469 -77.9126 -45.6455 -44.4188 -44.4032 -41.6731 -41.3061 -41.2880
    -4.4918  -3.5335   6.5036   8.0067   8.3502   9.1354   9.2530   9.6757
    10.9141  11.6672  11.7993  12.3659  13.0662  13.5169  13.9156  17.2223
    18.6870  19.0386  19.6222  23.9126  24.4184  29.8338  30.4787  32.2099
    33.0433  33.8814  34.8782  36.9016  37.7151  40.4822  40.9042  42.2841

     occupation numbers 
     1.0000   1.0000   1.0000   1.0000   1.0000   1.0000   1.0000   1.0000
     1.0000   1.0000   1.0000   1.0000   1.0000   1.0000   1.0000   1.0000
     1.0000   1.0000   1.0000   1.0000   1.0000   1.0000   1.0000   0.0000
     0.0000   0.0000   0.0000   0.0000   0.0000   0.0000   0.0000   0.0000
     0.0000   0.0000   0.0000   0.0000   0.0000   0.0000   0.0000   0.0000

          k = 0.5338-0.1902-0.1902 (   827 PWs)   bands (ev):

   -81.4431 -77.9075 -45.6403 -44.4599 -44.4134 -41.6664 -41.3543 -41.2999
    -3.6813  -3.2276   6.9996   7.8077   8.1547   8.2973   9.2416   9.5010
    10.0893  11.3747  11.5216  12.2565  12.9786  13.1490  14.0196  18.0372
    18.8475  19.0823  21.6699  23.8540  25.8835  26.9504  27.4238  29.7591
    32.6452  33.1068  33.1928  34.9365  38.7159  41.0462  43.0505  43.1480

     occupation numbers 
     1.0000   1.0000   1.0000   1.0000   1.0000   1.0000   1.0000   1.0000
     1.0000   1.0000   1.0000   1.0000   1.0000   1.0000   1.0000   1.0000
     1.0000   1.0000   1.0000   1.0000   1.0000   1.0000   1.0000   0.0000
     0.0000   0.0000   0.0000   0.0000   0.0000   0.0000   0.0000   0.0000
     0.0000   0.0000   0.0000   0.0000   0.0000   0.0000   0.0000   0.0000

          k =-0.8008 0.2853 0.2853 (   810 PWs)   bands (ev):

   -81.4413 -77.9049 -45.6369 -44.4802 -44.4177 -41.6624 -41.3783 -41.3053
    -3.2610  -3.0034   6.8964   7.4280   7.6981   8.2088   8.7596   9.8923
    10.5998  11.0875  11.3362  12.1438  13.0759  13.5601  13.8132  18.5957
    19.0296  19.1224  23.2674  23.4171  24.3176  24.9499  28.3038  28.3277
    32.0159  32.4865  33.9497  34.0131  41.6907  41.8089  43.8086  44.0326

     occupation numbers 
     1.0000   1.0000   1.0000   1.0000   1.0000   1.0000   1.0000   1.0000
     1.0000   1.0000   1.0000   1.0000   1.0000   1.0000   1.0000   1.0000
     1.0000   1.0000   1.0000   1.0000   1.0000   1.0000   1.0000   0.0000
     0.0000   0.0000   0.0000   0.0000   0.0000   0.0000   0.0000   0.0000
     0.0000   0.0000   0.0000   0.0000   0.0000   0.0000   0.0000   0.0000

          k = 0.1718 0.1718-0.1902 (   811 PWs)   bands (ev):

   -81.4468 -77.9126 -45.6454 -44.4187 -44.4031 -41.6731 -41.3060 -41.2880
    -4.4662  -3.5675   6.5833   7.9697   8.3582   9.1023   9.3279   9.6743
    10.7113  11.7607  11.8708  12.3345  12.7320  13.5503  14.2442  17.2821
    18.8634  18.9489  19.4674  23.5172  24.8336  29.7802  30.1883  32.1979
    33.1176  34.6416  35.0386  36.6897  37.4489  39.1313  42.1857  42.2316

     occupation numbers 
     1.0000   1.0000   1.0000   1.0000   1.0000   1.0000   1.0000   1.0000
     1.0000   1.0000   1.0000   1.0000   1.0000   1.0000   1.0000   1.0000
     1.0000   1.0000   1.0000   1.0000   1.0000   1.0000   1.0000   0.0000
     0.0000   0.0000   0.0000   0.0000   0.0000   0.0000   0.0000   0.0000
     0.0000   0.0000   0.0000   0.0000   0.0000   0.0000   0.0000   0.0000

          k = 0.4387 0.0767-0.2853 (   821 PWs)   bands (ev):

   -81.4438 -77.9087 -45.6417 -44.4456 -44.4147 -41.6681 -41.3376 -41.3013
    -3.8558  -3.3611   7.1869   7.7684   8.1602   8.7429   8.8754   9.9828
    10.0821  10.9219  11.8637  12.4102  12.7811  13.2578  13.8482  17.8069
    18.8232  19.0732  21.2038  23.6575  26.4372  27.9994  28.4872  30.0479
    31.3360  31.5799  35.0319  37.1262  38.5563  38.9128  41.2833  44.9100

     occupation numbers 
     1.0000   1.0000   1.0000   1.0000   1.0000   1.0000   1.0000   1.0000
     1.0000   1.0000   1.0000   1.0000   1.0000   1.0000   1.0000   1.0000
     1.0000   1.0000   1.0000   1.0000   1.0000   1.0000   1.0000   0.0000
     0.0000   0.0000   0.0000   0.0000   0.0000   0.0000   0.0000   0.0000
     0.0000   0.0000   0.0000   0.0000   0.0000   0.0000   0.0000   0.0000

          k =-0.8959 0.5522 0.1902 (   832 PWs)   bands (ev):

   -81.4409 -77.9048 -45.6374 -44.4701 -44.4294 -41.6627 -41.3663 -41.3182
    -3.2497  -3.0314   7.1135   7.5519   7.8950   8.3075   8.8277   9.2026
    10.5379  10.9059  11.7557  12.5456  12.7178  13.2803  13.4033  18.5259
    18.9850  19.1780  23.2379  23.5994  25.5332  26.1514  27.6039  27.8449
    30.4064  31.2544  34.9904  36.2123  39.9130  40.5945  42.8984  43.8271

     occupation numbers 
     1.0000   1.0000   1.0000   1.0000   1.0000   1.0000   1.0000   1.0000
     1.0000   1.0000   1.0000   1.0000   1.0000   1.0000   1.0000   1.0000
     1.0000   1.0000   1.0000   1.0000   1.0000   1.0000   1.0000   0.0000
     0.0000   0.0000   0.0000   0.0000   0.0000   0.0000   0.0000   0.0000
     0.0000   0.0000   0.0000   0.0000   0.0000   0.0000   0.0000   0.0000

          k =-0.6289 0.4571 0.0951 (   831 PWs)   bands (ev):

   -81.4409 -77.9048 -45.6374 -44.4703 -44.4293 -41.6627 -41.3664 -41.3181
    -3.2221  -3.0629   7.0229   7.8163   7.8891   8.3515   8.6363   9.2537
    10.4401  10.9701  11.6778  12.3851  12.8191  13.1473  13.6180  18.4731
    18.9258  19.4252  22.6341  24.0136  25.6675  26.2840  27.5812  27.9771
    30.4407  30.7483  35.3147  36.0416  40.0321  40.3551  42.1097  43.9612

     occupation numbers 
     1.0000   1.0000   1.0000   1.0000   1.0000   1.0000   1.0000   1.0000
     1.0000   1.0000   1.0000   1.0000   1.0000   1.0000   1.0000   1.0000
     1.0000   1.0000   1.0000   1.0000   1.0000   1.0000   1.0000   0.0000
     0.0000   0.0000   0.0000   0.0000   0.0000   0.0000   0.0000   0.0000
     0.0000   0.0000   0.0000   0.0000   0.0000   0.0000   0.0000   0.0000

          k =-0.3620 0.3620-0.0000 (   815 PWs)   bands (ev):

   -81.4438 -77.9087 -45.6415 -44.4457 -44.4145 -41.6679 -41.3377 -41.3012
    -3.8909  -3.3218   7.1919   7.8082   8.1631   8.7452   8.9367   9.8720
     9.9450  10.9600  11.8090  12.6637  12.8566  13.0110  13.9513  17.7564
    18.8546  19.1993  20.9274  23.9586  26.1775  27.9825  28.5095  30.2492
    31.4384  31.8857  34.2758  37.8584  38.1823  38.4160  40.9186  44.8101

     occupation numbers 
     1.0000   1.0000   1.0000   1.0000   1.0000   1.0000   1.0000   1.0000
     1.0000   1.0000   1.0000   1.0000   1.0000   1.0000   1.0000   1.0000
     1.0000   1.0000   1.0000   1.0000   1.0000   1.0000   1.0000   0.0000
     0.0000   0.0000   0.0000   0.0000   0.0000   0.0000   0.0000   0.0000
     0.0000   0.0000   0.0000   0.0000   0.0000   0.0000   0.0000   0.0000

          k = 0.3436 0.3436-0.3804 (   827 PWs)   bands (ev):

   -81.4432 -77.9076 -45.6403 -44.4601 -44.4133 -41.6662 -41.3544 -41.2999
    -3.5557  -3.3695   7.3237   7.5106   7.9527   8.2626   9.2396   9.9846
    10.1171  10.8239  11.9507  12.2753  12.4225  13.3535  14.3237  18.0433
    19.1176  19.2282  20.7817  22.9876  27.0131  27.3814  27.5639  29.6796
    31.8500  33.0837  33.9482  36.0155  37.2442  41.3837  42.1515  42.8593

     occupation numbers 
     1.0000   1.0000   1.0000   1.0000   1.0000   1.0000   1.0000   1.0000
     1.0000   1.0000   1.0000   1.0000   1.0000   1.0000   1.0000   1.0000
     1.0000   1.0000   1.0000   1.0000   1.0000   1.0000   1.0000   0.0000
     0.0000   0.0000   0.0000   0.0000   0.0000   0.0000   0.0000   0.0000
     0.0000   0.0000   0.0000   0.0000   0.0000   0.0000   0.0000   0.0000

          k =-0.9910 0.8192 0.0951 (   834 PWs)   bands (ev):

   -81.4410 -77.9048 -45.6373 -44.4704 -44.4294 -41.6625 -41.3665 -41.3182
    -3.1779  -3.1100   6.9170   7.6925   7.9740   8.2642   8.5164   9.9319
    10.2539  10.9920  11.6342  12.1626  12.7181  13.2463  13.8695  18.5136
    19.0023  19.4436  21.8959  23.1536  26.2832  27.0338  27.6601  28.3793
    29.6228  31.3666  34.8869  37.4954  38.8855  41.4628  41.6614  42.6199

     occupation numbers 
     1.0000   1.0000   1.0000   1.0000   1.0000   1.0000   1.0000   1.0000
     1.0000   1.0000   1.0000   1.0000   1.0000   1.0000   1.0000   1.0000
     1.0000   1.0000   1.0000   1.0000   1.0000   1.0000   1.0000   0.0000
     0.0000   0.0000   0.0000   0.0000   0.0000   0.0000   0.0000   0.0000
     0.0000   0.0000   0.0000   0.0000   0.0000   0.0000   0.0000   0.0000

          k =-0.7241 0.7241 0.0000 (   831 PWs)   bands (ev):

   -81.4398 -77.9034 -45.6357 -44.4565 -44.4562 -41.6606 -41.3498 -41.3497
    -2.9799  -2.9796   7.4217   7.5673   7.7078   8.4223   8.4397   9.0869
    10.0365  11.2633  11.5285  12.6058  12.8980  13.0598  13.2591  18.7441
    19.1529  19.2523  23.8493  24.4327  25.2273  26.1442  26.3023  26.7403
    30.3762  31.0390  36.0234  37.2420  39.3900  40.2435  41.4777  41.8924

     occupation numbers 
     1.0000   1.0000   1.0000   1.0000   1.0000   1.0000   1.0000   1.0000
     1.0000   1.0000   1.0000   1.0000   1.0000   1.0000   1.0000   1.0000
     1.0000   1.0000   1.0000   1.0000   1.0000   1.0000   1.0000   0.0000
     0.0000   0.0000   0.0000   0.0000   0.0000   0.0000   0.0000   0.0000
     0.0000   0.0000   0.0000   0.0000   0.0000   0.0000   0.0000   0.0000

          k =-0.5155-0.5155 0.5706 (   824 PWs)   bands (ev):

   -81.4416 -77.9051 -45.6372 -44.4806 -44.4182 -41.6623 -41.3787 -41.3056
    -3.2642  -3.0058   6.3546   7.4559   8.1276   8.4796   8.5418  10.1863
    10.5916  10.7776  12.0236  12.1376  12.3989  13.2806  14.2609  18.6423
    19.3485  19.6218  20.4013  22.4620  25.9039  27.1050  28.3383  28.4447
    30.5157  32.4061  34.0246  37.2330  38.0676  39.8052  43.0675  43.8283

     occupation numbers 
     1.0000   1.0000   1.0000   1.0000   1.0000   1.0000   1.0000   1.0000
     1.0000   1.0000   1.0000   1.0000   1.0000   1.0000   1.0000   1.0000
     1.0000   1.0000   1.0000   1.0000   1.0000   1.0000   1.0000   0.0000
     0.0000   0.0000   0.0000   0.0000   0.0000   0.0000   0.0000   0.0000
     0.0000   0.0000   0.0000   0.0000   0.0000   0.0000   0.0000   0.0000

          k = 0.0767 0.0767 0.0767 (   808 PWs)   bands (ev):

   -81.4491 -77.9149 -45.6483 -44.3980 -44.3980 -41.6767 -41.2821 -41.2821
    -4.7906  -3.7535   6.1534   8.2793   8.2793   9.0395   9.6567   9.6567
    11.4411  11.7177  11.7177  13.1403  13.1403  13.9342  13.9342  16.9800
    18.4300  18.9904  18.9904  22.0242  24.9053  30.1903  32.7018  32.7018
    34.1298  36.2005  36.2005  38.3209  39.0317  39.8533  39.8533  41.3043

     occupation numbers 
     1.0000   1.0000   1.0000   1.0000   1.0000   1.0000   1.0000   1.0000
     1.0000   1.0000   1.0000   1.0000   1.0000   1.0000   1.0000   1.0000
     1.0000   1.0000   1.0000   1.0000   1.0000   1.0000   1.0000   0.0000
     0.0000   0.0000   0.0000   0.0000   0.0000   0.0000   0.0000   0.0000
     0.0000   0.0000   0.0000   0.0000   0.0000   0.0000   0.0000   0.0000

          k = 0.3436-0.0184-0.0184 (   827 PWs)   bands (ev):

   -81.4469 -77.9126 -45.6458 -44.4190 -44.4033 -41.6734 -41.3062 -41.2882
    -4.4033  -3.6450   6.6629   7.8866   8.3536   9.1803   9.3569   9.6855
    10.7827  11.5599  11.7209  12.3728  13.4046  13.4169  13.5835  17.4065
    18.4041  19.0960  20.2047  23.0526  25.2656  29.6076  29.9511  32.4903
    32.9761  33.2687  34.6531  38.2180  38.9080  39.0494  41.8033  42.6262

     occupation numbers 
     1.0000   1.0000   1.0000   1.0000   1.0000   1.0000   1.0000   1.0000
     1.0000   1.0000   1.0000   1.0000   1.0000   1.0000   1.0000   1.0000
     1.0000   1.0000   1.0000   1.0000   1.0000   1.0000   1.0000   0.0000
     0.0000   0.0000   0.0000   0.0000   0.0000   0.0000   0.0000   0.0000
     0.0000   0.0000   0.0000   0.0000   0.0000   0.0000   0.0000   0.0000

          k =-0.9910 0.4571 0.4571 (   819 PWs)   bands (ev):

   -81.4431 -77.9075 -45.6400 -44.4596 -44.4133 -41.6662 -41.3542 -41.2997
    -3.6637  -3.2430   6.8969   7.6805   8.1011   8.2889   9.5447   9.5824
    10.1134  11.5136  11.7502  12.1602  12.6007  13.5205  13.5804  18.1597
    18.5354  19.1879  22.2643  23.1918  26.4125  26.8557  27.5015  29.4046
    32.1866  32.3401  33.4545  36.2857  40.5171  40.8480  41.3959  43.7559

     occupation numbers 
     1.0000   1.0000   1.0000   1.0000   1.0000   1.0000   1.0000   1.0000
     1.0000   1.0000   1.0000   1.0000   1.0000   1.0000   1.0000   1.0000
     1.0000   1.0000   1.0000   1.0000   1.0000   1.0000   1.0000   0.0000
     0.0000   0.0000   0.0000   0.0000   0.0000   0.0000   0.0000   0.0000
     0.0000   0.0000   0.0000   0.0000   0.0000   0.0000   0.0000   0.0000

          k =-0.7241 0.3620 0.3620 (   826 PWs)   bands (ev):

   -81.4414 -77.9050 -45.6374 -44.4806 -44.4179 -41.6627 -41.3787 -41.3055
    -3.2618  -3.0040   6.7321   7.3351   7.9905   8.1866   8.7817   9.8501
    10.5961  11.2175  11.2515  12.2145  13.1192  13.2002  14.0273  18.6117
    19.0991  19.1766  22.0945  23.4183  24.6715  25.7997  28.2839  28.3795
    31.3561  33.1164  33.1531  35.1892  39.4621  43.1161  43.7575  43.7782

     occupation numbers 
     1.0000   1.0000   1.0000   1.0000   1.0000   1.0000   1.0000   1.0000
     1.0000   1.0000   1.0000   1.0000   1.0000   1.0000   1.0000   1.0000
     1.0000   1.0000   1.0000   1.0000   1.0000   1.0000   1.0000   0.0000
     0.0000   0.0000   0.0000   0.0000   0.0000   0.0000   0.0000   0.0000
     0.0000   0.0000   0.0000   0.0000   0.0000   0.0000   0.0000   0.0000

          k =-0.4571 0.2669 0.2669 (   824 PWs)   bands (ev):

   -81.4431 -77.9076 -45.6402 -44.4600 -44.4134 -41.6662 -41.3544 -41.2999
    -3.6424  -3.2757   7.1869   7.7336   8.1021   8.2849   9.1684   9.5484
    10.0925  11.0973  11.6852  12.2381  12.7603  13.3225  14.2912  18.0084
    19.0467  19.1921  20.9830  23.5453  26.4279  27.0428  27.4579  30.0069
    32.2316  33.6077  33.9110  34.5022  37.2115  42.0711  42.2484  43.2491

     occupation numbers 
     1.0000   1.0000   1.0000   1.0000   1.0000   1.0000   1.0000   1.0000
     1.0000   1.0000   1.0000   1.0000   1.0000   1.0000   1.0000   1.0000
     1.0000   1.0000   1.0000   1.0000   1.0000   1.0000   1.0000   0.0000
     0.0000   0.0000   0.0000   0.0000   0.0000   0.0000   0.0000   0.0000
     0.0000   0.0000   0.0000   0.0000   0.0000   0.0000   0.0000   0.0000

          k = 0.2485 0.2485-0.1135 (   815 PWs)   bands (ev):

   -81.4468 -77.9126 -45.6457 -44.4185 -44.4029 -41.6734 -41.3059 -41.2878
    -4.3310  -3.7338   6.8640   7.7775   8.3697   9.1111   9.5808   9.6841
    10.3448  11.5118  11.8476  12.6294  12.6806  13.2793  14.3824  17.5166
    18.6586  18.9172  20.0294  22.7048  25.7365  28.8581  30.4505  31.3891
    33.4162  35.0476  35.6913  36.2062  37.8325  39.0173  42.2242  43.4087

     occupation numbers 
     1.0000   1.0000   1.0000   1.0000   1.0000   1.0000   1.0000   1.0000
     1.0000   1.0000   1.0000   1.0000   1.0000   1.0000   1.0000   1.0000
     1.0000   1.0000   1.0000   1.0000   1.0000   1.0000   1.0000   0.0000
     0.0000   0.0000   0.0000   0.0000   0.0000   0.0000   0.0000   0.0000
     0.0000   0.0000   0.0000   0.0000   0.0000   0.0000   0.0000   0.0000

          k =-1.0861 0.7241 0.3620 (   819 PWs)   bands (ev):

   -81.4438 -77.9087 -45.6415 -44.4456 -44.4147 -41.6680 -41.3375 -41.3014
    -3.7596  -3.4657   7.1764   7.7062   8.1555   8.7394   8.7667  10.1881
    10.4503  10.8489  11.6376  12.3683  12.8380  13.2205  13.7461  17.9627
    18.6229  19.0009  21.7722  23.0499  27.0272  28.0522  28.3709  29.2150
    31.2385  31.7514  35.7750  36.3717  39.4126  39.9626  42.1688  43.3369

     occupation numbers 
     1.0000   1.0000   1.0000   1.0000   1.0000   1.0000   1.0000   1.0000
     1.0000   1.0000   1.0000   1.0000   1.0000   1.0000   1.0000   1.0000
     1.0000   1.0000   1.0000   1.0000   1.0000   1.0000   1.0000   0.0000
     0.0000   0.0000   0.0000   0.0000   0.0000   0.0000   0.0000   0.0000
     0.0000   0.0000   0.0000   0.0000   0.0000   0.0000   0.0000   0.0000

          k =-0.8192 0.6289 0.2669 (   827 PWs)   bands (ev):

   -81.4409 -77.9048 -45.6372 -44.4700 -44.4292 -41.6625 -41.3662 -41.3181
    -3.2505  -3.0302   7.1745   7.3088   7.9327   8.2673   8.7966   9.4622
    10.5744  10.9219  11.7261  12.4937  12.7192  13.1562  13.6087  18.5818
    18.9912  19.1265  22.7875  23.2834  25.7276  26.5606  27.6547  27.9309
    30.2741  31.5595  34.7988  36.5509  39.9183  41.5260  42.6694  43.0448

     occupation numbers 
     1.0000   1.0000   1.0000   1.0000   1.0000   1.0000   1.0000   1.0000
     1.0000   1.0000   1.0000   1.0000   1.0000   1.0000   1.0000   1.0000
     1.0000   1.0000   1.0000   1.0000   1.0000   1.0000   1.0000   0.0000
     0.0000   0.0000   0.0000   0.0000   0.0000   0.0000   0.0000   0.0000
     0.0000   0.0000   0.0000   0.0000   0.0000   0.0000   0.0000   0.0000

          k =-0.5522 0.5338 0.1718 (   827 PWs)   bands (ev):

   -81.4410 -77.9048 -45.6372 -44.4703 -44.4292 -41.6625 -41.3664 -41.3181
    -3.1749  -3.1133   6.9499   7.7993   7.9835   8.3271   8.5116   9.5498
    10.3479  11.0043  11.6606  12.1716  12.8169  13.1738  13.8041  18.4716
    18.9437  19.5695  22.0372  23.6210  26.0698  26.7757  27.6046  28.2797
    29.9794  30.8039  35.5379  36.2204  39.5384  41.1057  41.4550  43.8874

     occupation numbers 
     1.0000   1.0000   1.0000   1.0000   1.0000   1.0000   1.0000   1.0000
     1.0000   1.0000   1.0000   1.0000   1.0000   1.0000   1.0000   1.0000
     1.0000   1.0000   1.0000   1.0000   1.0000   1.0000   1.0000   0.0000
     0.0000   0.0000   0.0000   0.0000   0.0000   0.0000   0.0000   0.0000
     0.0000   0.0000   0.0000   0.0000   0.0000   0.0000   0.0000   0.0000

          k =-0.6106-0.6106 0.8375 (   817 PWs)   bands (ev):

   -81.4432 -77.9075 -45.6399 -44.4598 -44.4131 -41.6659 -41.3542 -41.2996
    -3.4995  -3.4234   7.1634   7.4321   7.9617   8.2545   9.3847  10.1397
    10.3216  10.7947  11.9084  12.3747  12.5499  13.0331  14.1645  18.1308
    18.8466  19.2252  21.3189  22.6646  26.9618  27.5746  28.2749  28.7203
    31.7190  32.3613  34.0379  37.3364  39.0820  40.1311  40.7801  42.6881

     occupation numbers 
     1.0000   1.0000   1.0000   1.0000   1.0000   1.0000   1.0000   1.0000
     1.0000   1.0000   1.0000   1.0000   1.0000   1.0000   1.0000   1.0000
     1.0000   1.0000   1.0000   1.0000   1.0000   1.0000   1.0000   0.0000
     0.0000   0.0000   0.0000   0.0000   0.0000   0.0000   0.0000   0.0000
     0.0000   0.0000   0.0000   0.0000   0.0000   0.0000   0.0000   0.0000

          k =-0.3436-0.7057 0.7424 (   829 PWs)   bands (ev):

   -81.4410 -77.9048 -45.6372 -44.4702 -44.4293 -41.6624 -41.3663 -41.3181
    -3.2244  -3.0598   6.9912   7.4826   7.9560   8.2474   8.6423   9.8129
    10.4415  10.9906  11.6013  12.3795  12.6414  13.2135  13.8045  18.5681
    19.0044  19.2441  22.1875  23.0554  26.1314  26.9261  27.6878  28.1373
    29.9091  31.6939  34.5958  37.3399  39.5880  41.6450  42.0863  42.2123

     occupation numbers 
     1.0000   1.0000   1.0000   1.0000   1.0000   1.0000   1.0000   1.0000
     1.0000   1.0000   1.0000   1.0000   1.0000   1.0000   1.0000   1.0000
     1.0000   1.0000   1.0000   1.0000   1.0000   1.0000   1.0000   0.0000
     0.0000   0.0000   0.0000   0.0000   0.0000   0.0000   0.0000   0.0000
     0.0000   0.0000   0.0000   0.0000   0.0000   0.0000   0.0000   0.0000

          k =-0.0767-0.8008 0.6473 (   846 PWs)   bands (ev):

   -81.4398 -77.9034 -45.6361 -44.4568 -44.4568 -41.6609 -41.3501 -41.3501
    -2.9801  -2.9796   7.4498   7.5034   7.7497   8.3491   8.4994   9.0823
    10.0359  11.2614  11.5213  12.6804  12.7637  13.1808  13.1898  18.7442
    19.1601  19.2402  24.0376  24.1304  25.4759  25.8827  26.4460  26.7069
    30.4100  30.9771  36.5112  36.6015  39.8447  39.9998  41.6259  41.6791

     occupation numbers 
     1.0000   1.0000   1.0000   1.0000   1.0000   1.0000   1.0000   1.0000
     1.0000   1.0000   1.0000   1.0000   1.0000   1.0000   1.0000   1.0000
     1.0000   1.0000   1.0000   1.0000   1.0000   1.0000   1.0000   0.0000
     0.0000   0.0000   0.0000   0.0000   0.0000   0.0000   0.0000   0.0000
     0.0000   0.0000   0.0000   0.0000   0.0000   0.0000   0.0000   0.0000

          k =-0.4387-0.4387 0.6473 (   831 PWs)   bands (ev):

   -81.4415 -77.9050 -45.6375 -44.4807 -44.4181 -41.6627 -41.3788 -41.3056
    -3.2634  -3.0052   6.4640   7.3990   8.1466   8.2790   8.7254   9.9626
    10.5927  11.0001  11.5725  12.3424  12.6522  13.2220  14.2048  18.6335
    19.2915  19.3425  20.9933  22.7198  25.5593  26.7217  28.3103  28.4331
    30.7429  32.5830  33.7859  36.7297  37.8737  41.2698  43.3414  43.8053

     occupation numbers 
     1.0000   1.0000   1.0000   1.0000   1.0000   1.0000   1.0000   1.0000
     1.0000   1.0000   1.0000   1.0000   1.0000   1.0000   1.0000   1.0000
     1.0000   1.0000   1.0000   1.0000   1.0000   1.0000   1.0000   0.0000
     0.0000   0.0000   0.0000   0.0000   0.0000   0.0000   0.0000   0.0000
     0.0000   0.0000   0.0000   0.0000   0.0000   0.0000   0.0000   0.0000

          k = 0.1534 0.1534 0.1534 (   817 PWs)   bands (ev):

   -81.4491 -77.9148 -45.6483 -44.3978 -44.3978 -41.6770 -41.2820 -41.2820
    -4.5955  -4.0004   6.5633   8.3025   8.3025   8.9480   9.6661   9.6661
    10.7482  11.6401  11.6401  12.9282  12.9282  14.2610  14.2610  17.4448
    18.8971  18.8971  19.0311  21.2547  25.6511  28.4218  33.3663  33.3663
    35.4451  35.4451  36.0121  38.3025  39.1134  39.3701  39.3701  40.5391

     occupation numbers 
     1.0000   1.0000   1.0000   1.0000   1.0000   1.0000   1.0000   1.0000
     1.0000   1.0000   1.0000   1.0000   1.0000   1.0000   1.0000   1.0000
     1.0000   1.0000   1.0000   1.0000   1.0000   1.0000   1.0000   0.0000
     0.0000   0.0000   0.0000   0.0000   0.0000   0.0000   0.0000   0.0000
     0.0000   0.0000   0.0000   0.0000   0.0000   0.0000   0.0000   0.0000

          k =-1.1812 0.6289 0.6289 (   829 PWs)   bands (ev):

   -81.4469 -77.9125 -45.6458 -44.4191 -44.4032 -41.6735 -41.3062 -41.2881
    -4.2179  -3.8613   6.9885   7.6545   8.3652   9.1555   9.6281   9.6947
    10.4801  11.3113  11.6954  12.5205  13.0840  13.3155  13.9490  17.6874
    18.2139  19.0637  20.9856  22.0283  26.3283  28.1994  30.2206  31.9231
    33.4580  33.7559  34.3844  37.9946  39.6693  40.3956  40.9062  42.0952

     occupation numbers 
     1.0000   1.0000   1.0000   1.0000   1.0000   1.0000   1.0000   1.0000
     1.0000   1.0000   1.0000   1.0000   1.0000   1.0000   1.0000   1.0000
     1.0000   1.0000   1.0000   1.0000   1.0000   1.0000   1.0000   0.0000
     0.0000   0.0000   0.0000   0.0000   0.0000   0.0000   0.0000   0.0000
     0.0000   0.0000   0.0000   0.0000   0.0000   0.0000   0.0000   0.0000

          k =-0.9143 0.5338 0.5338 (   815 PWs)   bands (ev):

   -81.4431 -77.9075 -45.6398 -44.4596 -44.4132 -41.6660 -41.3540 -41.2997
    -3.5954  -3.3183   6.9519   7.5169   8.0374   8.2665   9.5265   9.9656
    10.1386  11.4442  11.6578  12.4263  12.5220  13.0413  13.8794  18.2570
    18.4746  19.2586  22.1975  22.5332  26.8502  27.3961  27.7055  28.9623
    31.9007  31.9428  33.8529  37.9227  39.3391  40.4591  41.4469  42.4725

     occupation numbers 
     1.0000   1.0000   1.0000   1.0000   1.0000   1.0000   1.0000   1.0000
     1.0000   1.0000   1.0000   1.0000   1.0000   1.0000   1.0000   1.0000
     1.0000   1.0000   1.0000   1.0000   1.0000   1.0000   1.0000   0.0000
     0.0000   0.0000   0.0000   0.0000   0.0000   0.0000   0.0000   0.0000
     0.0000   0.0000   0.0000   0.0000   0.0000   0.0000   0.0000   0.0000

          k =-0.7057-0.7057 1.1045 (   821 PWs)   bands (ev):

   -81.4469 -77.9125 -45.6455 -44.4189 -44.4030 -41.6733 -41.3061 -41.2880
    -4.1133  -3.9740   7.1800   7.5142   8.3728   9.1273   9.6942   9.9204
    10.0656  11.2757  11.7483  12.7808  12.8724  13.0707  14.2675  17.7227
    18.3463  18.9759  20.9634  21.8535  26.8451  27.5941  30.6722  31.0922
    33.7994  34.5755  34.6391  37.4706  38.0985  40.6238  41.9980  42.4315

     occupation numbers 
     1.0000   1.0000   1.0000   1.0000   1.0000   1.0000   1.0000   1.0000
     1.0000   1.0000   1.0000   1.0000   1.0000   1.0000   1.0000   1.0000
     1.0000   1.0000   1.0000   1.0000   1.0000   1.0000   1.0000   0.0000
     0.0000   0.0000   0.0000   0.0000   0.0000   0.0000   0.0000   0.0000
     0.0000   0.0000   0.0000   0.0000   0.0000   0.0000   0.0000   0.0000

          k =-0.4387-0.8008 1.0094 (   814 PWs)   bands (ev):

   -81.4438 -77.9087 -45.6413 -44.4454 -44.4146 -41.6678 -41.3373 -41.3013
    -3.6571  -3.5722   7.1712   7.6822   8.1528   8.7183   8.7392  10.2788
    10.7122  10.9619  11.2010  12.7033  12.7419  13.0093  13.7557  18.1097
    18.4502  18.9974  22.3440  22.4648  27.6644  27.8564  28.2553  28.6773
    31.4373  31.7347  35.9632  36.0264  40.6972  40.8202  41.8908  42.0529

     occupation numbers 
     1.0000   1.0000   1.0000   1.0000   1.0000   1.0000   1.0000   1.0000
     1.0000   1.0000   1.0000   1.0000   1.0000   1.0000   1.0000   1.0000
     1.0000   1.0000   1.0000   1.0000   1.0000   1.0000   1.0000   0.0000
     0.0000   0.0000   0.0000   0.0000   0.0000   0.0000   0.0000   0.0000
     0.0000   0.0000   0.0000   0.0000   0.0000   0.0000   0.0000   0.0000

          k =-0.2301-0.2301-0.2301 (   828 PWs)   bands (ev):

   -81.4491 -77.9148 -45.6485 -44.3980 -44.3980 -41.6773 -41.2821 -41.2821
    -4.3233  -4.2980   6.8206   8.3140   8.3140   8.8538   9.6702   9.6702
    10.4240  11.5997  11.5997  12.8529  12.8529  14.3901  14.3901  17.5493
    18.8509  18.8509  19.9926  20.2967  26.6456  27.0858  34.2673  34.2674
    34.4517  34.4517  37.2892  37.5149  39.5555  39.5555  39.8350  39.8350

     occupation numbers 
     1.0000   1.0000   1.0000   1.0000   1.0000   1.0000   1.0000   1.0000
     1.0000   1.0000   1.0000   1.0000   1.0000   1.0000   1.0000   1.0000
     1.0000   1.0000   1.0000   1.0000   1.0000   1.0000   1.0000   0.0000
     0.0000   0.0000   0.0000   0.0000   0.0000   0.0000   0.0000   0.0000
     0.0000   0.0000   0.0000   0.0000   0.0000   0.0000   0.0000   0.0000

     the Fermi energy is    15.0441 ev
     (compare with:    15.6219 eV, computed in scf)

     Writing all to output data dir ./tmp/CoO.save/ :
     XML data file, pseudopotentials, collected wavefunctions

     init_run     :      1.22s CPU      1.36s WALL (       1 calls)
     electrons    :     45.31s CPU     46.75s WALL (       1 calls)

     Called by init_run:
     wfcinit      :      0.28s CPU      0.30s WALL (       1 calls)
     wfcinit:atom :      0.01s CPU      0.01s WALL (      64 calls)
     wfcinit:wfcr :      1.92s CPU      2.02s WALL (      64 calls)
     potinit      :      0.45s CPU      0.49s WALL (       1 calls)
     hinit0       :      0.44s CPU      0.46s WALL (       1 calls)

     Called by electrons:
     c_bands      :     45.29s CPU     46.71s WALL (       1 calls)
     v_of_rho     :      0.11s CPU      0.14s WALL (       1 calls)
     v_h          :      0.01s CPU      0.01s WALL (       1 calls)
     v_xc         :      0.11s CPU      0.13s WALL (       1 calls)
     newd         :      0.03s CPU      0.08s WALL (       1 calls)
     PAW_pot      :      0.15s CPU      0.15s WALL (       1 calls)

     Called by c_bands:
     init_us_2    :      0.02s CPU      0.02s WALL (     128 calls)
     cegterg      :     43.24s CPU     44.55s WALL (     124 calls)

     Called by sum_band:

     Called by *egterg:
     cdiaghg      :      6.78s CPU      6.83s WALL (    1919 calls)
     cegterg:over :      3.35s CPU      3.40s WALL (    1855 calls)
     cegterg:upda :      1.40s CPU      1.40s WALL (    1855 calls)
     cegterg:last :      3.86s CPU      3.82s WALL (     911 calls)
     h_psi        :     26.80s CPU     28.16s WALL (    2043 calls)
     s_psi        :      1.15s CPU      1.17s WALL (    2107 calls)
     g_psi        :      0.07s CPU      0.07s WALL (    1855 calls)

     Called by h_psi:
     h_psi:calbec :      1.41s CPU      1.47s WALL (    2043 calls)
     vloc_psi     :     23.48s CPU     24.73s WALL (    2043 calls)
     add_vuspsi   :      1.09s CPU      1.13s WALL (    2043 calls)
     vhpsi        :      0.76s CPU      0.78s WALL (    2043 calls)

     General routines
     calbec       :      2.04s CPU      2.11s WALL (    4150 calls)
     fft          :      0.28s CPU      0.29s WALL (      23 calls)
     ffts         :      0.17s CPU      0.17s WALL (       2 calls)
     fftw         :     19.45s CPU     20.61s WALL (   82128 calls)
     interpolate  :      0.18s CPU      0.18s WALL (       2 calls)
     davcio       :      0.04s CPU      0.05s WALL (     256 calls)

     Parallel routines

     Hubbard U routines
     vhpsi        :      0.76s CPU      0.78s WALL (    2043 calls)

     PAW routines
     PAW_pot      :      0.15s CPU      0.15s WALL (       1 calls)

     PWSCF        :     46.90s CPU     48.72s WALL


   This run was terminated on:  16:16:31  12Jul2025            

=------------------------------------------------------------------------------=
   JOB DONE.
=------------------------------------------------------------------------------=
