
     Program PWSCF v.7.4.1 starts on 10Jul2025 at  5:33:49 

     This program is part of the open-source Quantum ESPRESSO suite
     for quantum simulation of materials; please cite
         "P. Giannozzi et al., J. Phys.:Condens. Matter 21 395502 (2009);
         "P. Giannozzi et al., J. Phys.:Condens. Matter 29 465901 (2017);
         "P. Giannozzi et al., J. Chem. Phys. 152 154105 (2020);
          URL http://www.quantum-espresso.org", 
     in publications or presentations arising from this work. More details at
     http://www.quantum-espresso.org/quote

     Parallel version (MPI), running on     4 processors

     MPI processes distributed on     1 nodes
     150 MiB available memory on the printing compute node when the environment starts

     Waiting for input...
     Reading input from standard input

     Current dimensions of program PWSCF are:
     Max number of different atomic species (ntypx) = 10
     Max number of k-points (npk) =  40000
     Max angular momentum in pseudopotentials (lmaxx) =  4

     Atomic positions and unit cell read from directory:
     ./tmp/Si.save/


     R & G space division:  proc/nbgrp/npool/nimage =       4
     Subspace diagonalization in iterative solution of the eigenvalue problem:
     a serial algorithm will be used


     Parallelization info
     --------------------
     sticks:   dense  smooth     PW     G-vecs:    dense   smooth      PW
     Min         186     186     58                 3383     3383     569
     Max         187     187     59                 3388     3388     570
     Sum         745     745    235                13539    13539    2277

     Using Slab Decomposition



     bravais-lattice index     =            2
     lattice parameter (alat)  =      10.4109  a.u.
     unit-cell volume          =     282.1019 (a.u.)^3
     number of atoms/cell      =            2
     number of atomic types    =            1
     number of electrons       =         8.00
     number of Kohn-Sham states=            8
     kinetic-energy cutoff     =      50.0000  Ry
     charge density cutoff     =     200.0000  Ry
     Exchange-correlation= PBE
                           (   1   4   3   4   0   0   0)

     celldm(1)=  10.410909  celldm(2)=   0.000000  celldm(3)=   0.000000
     celldm(4)=   0.000000  celldm(5)=   0.000000  celldm(6)=   0.000000

     crystal axes: (cart. coord. in units of alat)
               a(1) = (  -0.500000   0.000000   0.500000 )  
               a(2) = (   0.000000   0.500000   0.500000 )  
               a(3) = (  -0.500000   0.500000   0.000000 )  

     reciprocal axes: (cart. coord. in units 2 pi/alat)
               b(1) = ( -1.000000 -1.000000  1.000000 )  
               b(2) = (  1.000000  1.000000  1.000000 )  
               b(3) = ( -1.000000  1.000000 -1.000000 )  


     PseudoPot. # 1 for Si read from file:
     ./Si.pbe-n-rrkjus_psl.1.0.0.UPF
     MD5 check sum: 0b0bb1205258b0d07b9f9672cf965d36
     Pseudo is Ultrasoft + core correction, Zval =  4.0
     Generated using "atomic" code by A. Dal Corso  v.5.1
     Using radial grid of 1141 points,  6 beta functions with: 
                l(1) =   0
                l(2) =   0
                l(3) =   1
                l(4) =   1
                l(5) =   2
                l(6) =   2
     Q(r) pseudized with 0 coefficients 


     atomic species   valence    mass     pseudopotential
     Si                4.00    28.08550     Si( 1.00)

     48 Sym. Ops., with inversion, found (24 have fractional translation)


                                    s                        frac. trans.

      isym =  1     identity                                     

 cryst.   s( 1) = (     1          0          0      )
                  (     0          1          0      )
                  (     0          0          1      )

 cart.    s( 1) = (  1.0000000  0.0000000  0.0000000 )
                  (  0.0000000  1.0000000  0.0000000 )
                  (  0.0000000  0.0000000  1.0000000 )


      isym =  2     180 deg rotation - cart. axis [0,0,1]        

 cryst.   s( 2) = (     0          1         -1      )
                  (     1          0         -1      )
                  (     0          0         -1      )

 cart.    s( 2) = ( -1.0000000  0.0000000  0.0000000 )
                  (  0.0000000 -1.0000000  0.0000000 )
                  (  0.0000000  0.0000000  1.0000000 )


      isym =  3     180 deg rotation - cart. axis [0,1,0]        

 cryst.   s( 3) = (    -1          0          0      )
                  (    -1          0          1      )
                  (    -1          1          0      )

 cart.    s( 3) = ( -1.0000000  0.0000000  0.0000000 )
                  (  0.0000000  1.0000000  0.0000000 )
                  (  0.0000000  0.0000000 -1.0000000 )


      isym =  4     180 deg rotation - cart. axis [1,0,0]        

 cryst.   s( 4) = (     0         -1          1      )
                  (     0         -1          0      )
                  (     1         -1          0      )

 cart.    s( 4) = (  1.0000000  0.0000000  0.0000000 )
                  (  0.0000000 -1.0000000  0.0000000 )
                  (  0.0000000  0.0000000 -1.0000000 )


      isym =  5     180 deg rotation - cart. axis [1,1,0]        

 cryst.   s( 5) = (     0         -1          0      )    f =(  0.2500000 )
                  (    -1          0          0      )       (  0.2500000 )
                  (     0          0         -1      )       (  0.2500000 )

 cart.    s( 5) = (  0.0000000  1.0000000  0.0000000 )    f =( -0.2500000 )
                  (  1.0000000  0.0000000  0.0000000 )       (  0.2500000 )
                  (  0.0000000  0.0000000 -1.0000000 )       (  0.2500000 )


      isym =  6     180 deg rotation - cart. axis [1,-1,0]       

 cryst.   s( 6) = (    -1          0          1      )    f =(  0.2500000 )
                  (     0         -1          1      )       (  0.2500000 )
                  (     0          0          1      )       (  0.2500000 )

 cart.    s( 6) = (  0.0000000 -1.0000000  0.0000000 )    f =( -0.2500000 )
                  ( -1.0000000  0.0000000  0.0000000 )       (  0.2500000 )
                  (  0.0000000  0.0000000 -1.0000000 )       (  0.2500000 )


      isym =  7      90 deg rotation - cart. axis [0,0,-1]       

 cryst.   s( 7) = (     0          1          0      )    f =(  0.2500000 )
                  (     0          1         -1      )       (  0.2500000 )
                  (    -1          1          0      )       (  0.2500000 )

 cart.    s( 7) = (  0.0000000  1.0000000  0.0000000 )    f =( -0.2500000 )
                  ( -1.0000000  0.0000000  0.0000000 )       (  0.2500000 )
                  (  0.0000000  0.0000000  1.0000000 )       (  0.2500000 )


      isym =  8      90 deg rotation - cart. axis [0,0,1]        

 cryst.   s( 8) = (     1          0         -1      )    f =(  0.2500000 )
                  (     1          0          0      )       (  0.2500000 )
                  (     1         -1          0      )       (  0.2500000 )

 cart.    s( 8) = (  0.0000000 -1.0000000  0.0000000 )    f =( -0.2500000 )
                  (  1.0000000  0.0000000  0.0000000 )       (  0.2500000 )
                  (  0.0000000  0.0000000  1.0000000 )       (  0.2500000 )


      isym =  9     180 deg rotation - cart. axis [1,0,1]        

 cryst.   s( 9) = (    -1          0          0      )    f =(  0.2500000 )
                  (     0          0         -1      )       (  0.2500000 )
                  (     0         -1          0      )       (  0.2500000 )

 cart.    s( 9) = (  0.0000000  0.0000000  1.0000000 )    f =( -0.2500000 )
                  (  0.0000000 -1.0000000  0.0000000 )       (  0.2500000 )
                  (  1.0000000  0.0000000  0.0000000 )       (  0.2500000 )


      isym = 10     180 deg rotation - cart. axis [-1,0,1]       

 cryst.   s(10) = (     1          0          0      )    f =(  0.2500000 )
                  (     1         -1          0      )       (  0.2500000 )
                  (     1          0         -1      )       (  0.2500000 )

 cart.    s(10) = (  0.0000000  0.0000000 -1.0000000 )    f =( -0.2500000 )
                  (  0.0000000 -1.0000000  0.0000000 )       (  0.2500000 )
                  ( -1.0000000  0.0000000  0.0000000 )       (  0.2500000 )


      isym = 11      90 deg rotation - cart. axis [0,1,0]        

 cryst.   s(11) = (     0          1         -1      )    f =(  0.2500000 )
                  (    -1          1          0      )       (  0.2500000 )
                  (     0          1          0      )       (  0.2500000 )

 cart.    s(11) = (  0.0000000  0.0000000  1.0000000 )    f =( -0.2500000 )
                  (  0.0000000  1.0000000  0.0000000 )       (  0.2500000 )
                  ( -1.0000000  0.0000000  0.0000000 )       (  0.2500000 )


      isym = 12      90 deg rotation - cart. axis [0,-1,0]       

 cryst.   s(12) = (     0         -1          1      )    f =(  0.2500000 )
                  (     0          0          1      )       (  0.2500000 )
                  (    -1          0          1      )       (  0.2500000 )

 cart.    s(12) = (  0.0000000  0.0000000 -1.0000000 )    f =( -0.2500000 )
                  (  0.0000000  1.0000000  0.0000000 )       (  0.2500000 )
                  (  1.0000000  0.0000000  0.0000000 )       (  0.2500000 )


      isym = 13     180 deg rotation - cart. axis [0,1,1]        

 cryst.   s(13) = (    -1          1          0      )    f =(  0.2500000 )
                  (     0          1          0      )       (  0.2500000 )
                  (     0          1         -1      )       (  0.2500000 )

 cart.    s(13) = ( -1.0000000  0.0000000  0.0000000 )    f =( -0.2500000 )
                  (  0.0000000  0.0000000  1.0000000 )       (  0.2500000 )
                  (  0.0000000  1.0000000  0.0000000 )       (  0.2500000 )


      isym = 14     180 deg rotation - cart. axis [0,1,-1]       

 cryst.   s(14) = (     0          0         -1      )    f =(  0.2500000 )
                  (     0         -1          0      )       (  0.2500000 )
                  (    -1          0          0      )       (  0.2500000 )

 cart.    s(14) = ( -1.0000000  0.0000000  0.0000000 )    f =( -0.2500000 )
                  (  0.0000000  0.0000000 -1.0000000 )       (  0.2500000 )
                  (  0.0000000 -1.0000000  0.0000000 )       (  0.2500000 )


      isym = 15      90 deg rotation - cart. axis [-1,0,0]       

 cryst.   s(15) = (     0          0          1      )    f =(  0.2500000 )
                  (    -1          0          1      )       (  0.2500000 )
                  (     0         -1          1      )       (  0.2500000 )

 cart.    s(15) = (  1.0000000  0.0000000  0.0000000 )    f =( -0.2500000 )
                  (  0.0000000  0.0000000  1.0000000 )       (  0.2500000 )
                  (  0.0000000 -1.0000000  0.0000000 )       (  0.2500000 )


      isym = 16      90 deg rotation - cart. axis [1,0,0]        

 cryst.   s(16) = (     1         -1          0      )    f =(  0.2500000 )
                  (     1          0         -1      )       (  0.2500000 )
                  (     1          0          0      )       (  0.2500000 )

 cart.    s(16) = (  1.0000000  0.0000000  0.0000000 )    f =( -0.2500000 )
                  (  0.0000000  0.0000000 -1.0000000 )       (  0.2500000 )
                  (  0.0000000  1.0000000  0.0000000 )       (  0.2500000 )


      isym = 17     120 deg rotation - cart. axis [-1,-1,-1]     

 cryst.   s(17) = (    -1          0          1      )
                  (    -1          1          0      )
                  (    -1          0          0      )

 cart.    s(17) = (  0.0000000  1.0000000  0.0000000 )
                  (  0.0000000  0.0000000  1.0000000 )
                  (  1.0000000  0.0000000  0.0000000 )


      isym = 18     120 deg rotation - cart. axis [-1,1,1]       

 cryst.   s(18) = (     0          1          0      )
                  (     0          0          1      )
                  (     1          0          0      )

 cart.    s(18) = (  0.0000000 -1.0000000  0.0000000 )
                  (  0.0000000  0.0000000  1.0000000 )
                  ( -1.0000000  0.0000000  0.0000000 )


      isym = 19     120 deg rotation - cart. axis [1,1,-1]       

 cryst.   s(19) = (     1          0         -1      )
                  (     0          0         -1      )
                  (     0          1         -1      )

 cart.    s(19) = (  0.0000000  1.0000000  0.0000000 )
                  (  0.0000000  0.0000000 -1.0000000 )
                  ( -1.0000000  0.0000000  0.0000000 )


      isym = 20     120 deg rotation - cart. axis [1,-1,1]       

 cryst.   s(20) = (     0         -1          0      )
                  (     1         -1          0      )
                  (     0         -1          1      )

 cart.    s(20) = (  0.0000000 -1.0000000  0.0000000 )
                  (  0.0000000  0.0000000 -1.0000000 )
                  (  1.0000000  0.0000000  0.0000000 )


      isym = 21     120 deg rotation - cart. axis [1,1,1]        

 cryst.   s(21) = (     0          0         -1      )
                  (     0          1         -1      )
                  (     1          0         -1      )

 cart.    s(21) = (  0.0000000  0.0000000  1.0000000 )
                  (  1.0000000  0.0000000  0.0000000 )
                  (  0.0000000  1.0000000  0.0000000 )


      isym = 22     120 deg rotation - cart. axis [-1,1,-1]      

 cryst.   s(22) = (    -1          1          0      )
                  (    -1          0          0      )
                  (    -1          0          1      )

 cart.    s(22) = (  0.0000000  0.0000000  1.0000000 )
                  ( -1.0000000  0.0000000  0.0000000 )
                  (  0.0000000 -1.0000000  0.0000000 )


      isym = 23     120 deg rotation - cart. axis [1,-1,-1]      

 cryst.   s(23) = (     0          0          1      )
                  (     1          0          0      )
                  (     0          1          0      )

 cart.    s(23) = (  0.0000000  0.0000000 -1.0000000 )
                  ( -1.0000000  0.0000000  0.0000000 )
                  (  0.0000000  1.0000000  0.0000000 )


      isym = 24     120 deg rotation - cart. axis [-1,-1,1]      

 cryst.   s(24) = (     1         -1          0      )
                  (     0         -1          1      )
                  (     0         -1          0      )

 cart.    s(24) = (  0.0000000  0.0000000 -1.0000000 )
                  (  1.0000000  0.0000000  0.0000000 )
                  (  0.0000000 -1.0000000  0.0000000 )


      isym = 25     inversion                                    

 cryst.   s(25) = (    -1          0          0      )    f =(  0.2500000 )
                  (     0         -1          0      )       (  0.2500000 )
                  (     0          0         -1      )       (  0.2500000 )

 cart.    s(25) = ( -1.0000000  0.0000000  0.0000000 )    f =( -0.2500000 )
                  (  0.0000000 -1.0000000  0.0000000 )       (  0.2500000 )
                  (  0.0000000  0.0000000 -1.0000000 )       (  0.2500000 )


      isym = 26     inv. 180 deg rotation - cart. axis [0,0,1]   

 cryst.   s(26) = (     0         -1          1      )    f =(  0.2500000 )
                  (    -1          0          1      )       (  0.2500000 )
                  (     0          0          1      )       (  0.2500000 )

 cart.    s(26) = (  1.0000000  0.0000000  0.0000000 )    f =( -0.2500000 )
                  (  0.0000000  1.0000000  0.0000000 )       (  0.2500000 )
                  (  0.0000000  0.0000000 -1.0000000 )       (  0.2500000 )


      isym = 27     inv. 180 deg rotation - cart. axis [0,1,0]   

 cryst.   s(27) = (     1          0          0      )    f =(  0.2500000 )
                  (     1          0         -1      )       (  0.2500000 )
                  (     1         -1          0      )       (  0.2500000 )

 cart.    s(27) = (  1.0000000  0.0000000  0.0000000 )    f =( -0.2500000 )
                  (  0.0000000 -1.0000000  0.0000000 )       (  0.2500000 )
                  (  0.0000000  0.0000000  1.0000000 )       (  0.2500000 )


      isym = 28     inv. 180 deg rotation - cart. axis [1,0,0]   

 cryst.   s(28) = (     0          1         -1      )    f =(  0.2500000 )
                  (     0          1          0      )       (  0.2500000 )
                  (    -1          1          0      )       (  0.2500000 )

 cart.    s(28) = ( -1.0000000  0.0000000  0.0000000 )    f =( -0.2500000 )
                  (  0.0000000  1.0000000  0.0000000 )       (  0.2500000 )
                  (  0.0000000  0.0000000  1.0000000 )       (  0.2500000 )


      isym = 29     inv. 180 deg rotation - cart. axis [1,1,0]   

 cryst.   s(29) = (     0          1          0      )
                  (     1          0          0      )
                  (     0          0          1      )

 cart.    s(29) = (  0.0000000 -1.0000000  0.0000000 )
                  ( -1.0000000  0.0000000  0.0000000 )
                  (  0.0000000  0.0000000  1.0000000 )


      isym = 30     inv. 180 deg rotation - cart. axis [1,-1,0]  

 cryst.   s(30) = (     1          0         -1      )
                  (     0          1         -1      )
                  (     0          0         -1      )

 cart.    s(30) = (  0.0000000  1.0000000  0.0000000 )
                  (  1.0000000  0.0000000  0.0000000 )
                  (  0.0000000  0.0000000  1.0000000 )


      isym = 31     inv.  90 deg rotation - cart. axis [0,0,-1]  

 cryst.   s(31) = (     0         -1          0      )
                  (     0         -1          1      )
                  (     1         -1          0      )

 cart.    s(31) = (  0.0000000 -1.0000000  0.0000000 )
                  (  1.0000000  0.0000000  0.0000000 )
                  (  0.0000000  0.0000000 -1.0000000 )


      isym = 32     inv.  90 deg rotation - cart. axis [0,0,1]   

 cryst.   s(32) = (    -1          0          1      )
                  (    -1          0          0      )
                  (    -1          1          0      )

 cart.    s(32) = (  0.0000000  1.0000000  0.0000000 )
                  ( -1.0000000  0.0000000  0.0000000 )
                  (  0.0000000  0.0000000 -1.0000000 )


      isym = 33     inv. 180 deg rotation - cart. axis [1,0,1]   

 cryst.   s(33) = (     1          0          0      )
                  (     0          0          1      )
                  (     0          1          0      )

 cart.    s(33) = (  0.0000000  0.0000000 -1.0000000 )
                  (  0.0000000  1.0000000  0.0000000 )
                  ( -1.0000000  0.0000000  0.0000000 )


      isym = 34     inv. 180 deg rotation - cart. axis [-1,0,1]  

 cryst.   s(34) = (    -1          0          0      )
                  (    -1          1          0      )
                  (    -1          0          1      )

 cart.    s(34) = (  0.0000000  0.0000000  1.0000000 )
                  (  0.0000000  1.0000000  0.0000000 )
                  (  1.0000000  0.0000000  0.0000000 )


      isym = 35     inv.  90 deg rotation - cart. axis [0,1,0]   

 cryst.   s(35) = (     0         -1          1      )
                  (     1         -1          0      )
                  (     0         -1          0      )

 cart.    s(35) = (  0.0000000  0.0000000 -1.0000000 )
                  (  0.0000000 -1.0000000  0.0000000 )
                  (  1.0000000  0.0000000  0.0000000 )


      isym = 36     inv.  90 deg rotation - cart. axis [0,-1,0]  

 cryst.   s(36) = (     0          1         -1      )
                  (     0          0         -1      )
                  (     1          0         -1      )

 cart.    s(36) = (  0.0000000  0.0000000  1.0000000 )
                  (  0.0000000 -1.0000000  0.0000000 )
                  ( -1.0000000  0.0000000  0.0000000 )


      isym = 37     inv. 180 deg rotation - cart. axis [0,1,1]   

 cryst.   s(37) = (     1         -1          0      )
                  (     0         -1          0      )
                  (     0         -1          1      )

 cart.    s(37) = (  1.0000000  0.0000000  0.0000000 )
                  (  0.0000000  0.0000000 -1.0000000 )
                  (  0.0000000 -1.0000000  0.0000000 )


      isym = 38     inv. 180 deg rotation - cart. axis [0,1,-1]  

 cryst.   s(38) = (     0          0          1      )
                  (     0          1          0      )
                  (     1          0          0      )

 cart.    s(38) = (  1.0000000  0.0000000  0.0000000 )
                  (  0.0000000  0.0000000  1.0000000 )
                  (  0.0000000  1.0000000  0.0000000 )


      isym = 39     inv.  90 deg rotation - cart. axis [-1,0,0]  

 cryst.   s(39) = (     0          0         -1      )
                  (     1          0         -1      )
                  (     0          1         -1      )

 cart.    s(39) = ( -1.0000000  0.0000000  0.0000000 )
                  (  0.0000000  0.0000000 -1.0000000 )
                  (  0.0000000  1.0000000  0.0000000 )


      isym = 40     inv.  90 deg rotation - cart. axis [1,0,0]   

 cryst.   s(40) = (    -1          1          0      )
                  (    -1          0          1      )
                  (    -1          0          0      )

 cart.    s(40) = ( -1.0000000  0.0000000  0.0000000 )
                  (  0.0000000  0.0000000  1.0000000 )
                  (  0.0000000 -1.0000000  0.0000000 )


      isym = 41     inv. 120 deg rotation - cart. axis [-1,-1,-1]

 cryst.   s(41) = (     1          0         -1      )    f =(  0.2500000 )
                  (     1         -1          0      )       (  0.2500000 )
                  (     1          0          0      )       (  0.2500000 )

 cart.    s(41) = (  0.0000000 -1.0000000  0.0000000 )    f =( -0.2500000 )
                  (  0.0000000  0.0000000 -1.0000000 )       (  0.2500000 )
                  ( -1.0000000  0.0000000  0.0000000 )       (  0.2500000 )


      isym = 42     inv. 120 deg rotation - cart. axis [-1,1,1]  

 cryst.   s(42) = (     0         -1          0      )    f =(  0.2500000 )
                  (     0          0         -1      )       (  0.2500000 )
                  (    -1          0          0      )       (  0.2500000 )

 cart.    s(42) = (  0.0000000  1.0000000  0.0000000 )    f =( -0.2500000 )
                  (  0.0000000  0.0000000 -1.0000000 )       (  0.2500000 )
                  (  1.0000000  0.0000000  0.0000000 )       (  0.2500000 )


      isym = 43     inv. 120 deg rotation - cart. axis [1,1,-1]  

 cryst.   s(43) = (    -1          0          1      )    f =(  0.2500000 )
                  (     0          0          1      )       (  0.2500000 )
                  (     0         -1          1      )       (  0.2500000 )

 cart.    s(43) = (  0.0000000 -1.0000000  0.0000000 )    f =( -0.2500000 )
                  (  0.0000000  0.0000000  1.0000000 )       (  0.2500000 )
                  (  1.0000000  0.0000000  0.0000000 )       (  0.2500000 )


      isym = 44     inv. 120 deg rotation - cart. axis [1,-1,1]  

 cryst.   s(44) = (     0          1          0      )    f =(  0.2500000 )
                  (    -1          1          0      )       (  0.2500000 )
                  (     0          1         -1      )       (  0.2500000 )

 cart.    s(44) = (  0.0000000  1.0000000  0.0000000 )    f =( -0.2500000 )
                  (  0.0000000  0.0000000  1.0000000 )       (  0.2500000 )
                  ( -1.0000000  0.0000000  0.0000000 )       (  0.2500000 )


      isym = 45     inv. 120 deg rotation - cart. axis [1,1,1]   

 cryst.   s(45) = (     0          0          1      )    f =(  0.2500000 )
                  (     0         -1          1      )       (  0.2500000 )
                  (    -1          0          1      )       (  0.2500000 )

 cart.    s(45) = (  0.0000000  0.0000000 -1.0000000 )    f =( -0.2500000 )
                  ( -1.0000000  0.0000000  0.0000000 )       (  0.2500000 )
                  (  0.0000000 -1.0000000  0.0000000 )       (  0.2500000 )


      isym = 46     inv. 120 deg rotation - cart. axis [-1,1,-1] 

 cryst.   s(46) = (     1         -1          0      )    f =(  0.2500000 )
                  (     1          0          0      )       (  0.2500000 )
                  (     1          0         -1      )       (  0.2500000 )

 cart.    s(46) = (  0.0000000  0.0000000 -1.0000000 )    f =( -0.2500000 )
                  (  1.0000000  0.0000000  0.0000000 )       (  0.2500000 )
                  (  0.0000000  1.0000000  0.0000000 )       (  0.2500000 )


      isym = 47     inv. 120 deg rotation - cart. axis [1,-1,-1] 

 cryst.   s(47) = (     0          0         -1      )    f =(  0.2500000 )
                  (    -1          0          0      )       (  0.2500000 )
                  (     0         -1          0      )       (  0.2500000 )

 cart.    s(47) = (  0.0000000  0.0000000  1.0000000 )    f =( -0.2500000 )
                  (  1.0000000  0.0000000  0.0000000 )       (  0.2500000 )
                  (  0.0000000 -1.0000000  0.0000000 )       (  0.2500000 )


      isym = 48     inv. 120 deg rotation - cart. axis [-1,-1,1] 

 cryst.   s(48) = (    -1          1          0      )    f =(  0.2500000 )
                  (     0          1         -1      )       (  0.2500000 )
                  (     0          1          0      )       (  0.2500000 )

 cart.    s(48) = (  0.0000000  0.0000000  1.0000000 )    f =( -0.2500000 )
                  ( -1.0000000  0.0000000  0.0000000 )       (  0.2500000 )
                  (  0.0000000  1.0000000  0.0000000 )       (  0.2500000 )


     point group O_h (m-3m) 
     there are 10 classes
     the character table:

       E     8C3   3C2   6C4   6C2'  i     8S6   3s_h  6S4   6s_d 
A_1g   1.00  1.00  1.00  1.00  1.00  1.00  1.00  1.00  1.00  1.00
A_2g   1.00  1.00  1.00 -1.00 -1.00  1.00  1.00  1.00 -1.00 -1.00
E_g    2.00 -1.00  2.00  0.00  0.00  2.00 -1.00  2.00  0.00  0.00
T_1g   3.00  0.00 -1.00  1.00 -1.00  3.00  0.00 -1.00  1.00 -1.00
T_2g   3.00  0.00 -1.00 -1.00  1.00  3.00  0.00 -1.00 -1.00  1.00
A_1u   1.00  1.00  1.00  1.00  1.00 -1.00 -1.00 -1.00 -1.00 -1.00
A_2u   1.00  1.00  1.00 -1.00 -1.00 -1.00 -1.00 -1.00  1.00  1.00
E_u    2.00 -1.00  2.00  0.00  0.00 -2.00  1.00 -2.00  0.00  0.00
T_1u   3.00  0.00 -1.00  1.00 -1.00 -3.00  0.00  1.00 -1.00  1.00
T_2u   3.00  0.00 -1.00 -1.00  1.00 -3.00  0.00  1.00  1.00 -1.00

     the symmetry operations in each class and the name of the first element:

     E        1
          identity                                               
     8C3     17   19   20   18   24   21   22   23
          120 deg rotation - cart. axis [-1,-1,-1]               
     3C2      2    4    3
          180 deg rotation - cart. axis [0,0,1]                  
     6C4      7    8   15   16   12   11
           90 deg rotation - cart. axis [0,0,-1]                 
     6C2'     5    6   14   13   10    9
          180 deg rotation - cart. axis [1,1,0]                  
     i       25
          inversion                                              
     8S6     41   43   44   42   48   45   46   47
          inv. 120 deg rotation - cart. axis [-1,-1,-1]          
     3s_h    26   28   27
          inv. 180 deg rotation - cart. axis [0,0,1]             
     6S4     31   32   39   40   36   35
          inv.  90 deg rotation - cart. axis [0,0,-1]            
     6s_d    29   30   38   37   34   33
          inv. 180 deg rotation - cart. axis [1,1,0]             

   Cartesian axes

     site n.     atom                  positions (alat units)
         1        Si     tau(   1) = (   0.0000000   0.0000000   0.0000000  )
         2        Si     tau(   2) = (   0.2500000   0.2500000   0.2500000  )

   Crystallographic axes

     site n.     atom                  positions (cryst. coord.)
         1        Si     tau(   1) = (  0.0000000  0.0000000  0.0000000  )
         2        Si     tau(   2) = ( -0.2500000  0.7500000 -0.2500000  )

     number of k points=   195 (tetrahedron method)
                       cart. coord. in units 2pi/alat
        k(    1) = (   0.0000000   0.0000000   0.0000000), wk =   0.0003429
        k(    2) = (  -0.0555556   0.0555556  -0.0555556), wk =   0.0027435
        k(    3) = (  -0.1111111   0.1111111  -0.1111111), wk =   0.0027435
        k(    4) = (  -0.1666667   0.1666667  -0.1666667), wk =   0.0027435
        k(    5) = (  -0.2222222   0.2222222  -0.2222222), wk =   0.0027435
        k(    6) = (  -0.2777778   0.2777778  -0.2777778), wk =   0.0027435
        k(    7) = (  -0.3333333   0.3333333  -0.3333333), wk =   0.0027435
        k(    8) = (  -0.3888889   0.3888889  -0.3888889), wk =   0.0027435
        k(    9) = (  -0.4444444   0.4444444  -0.4444444), wk =   0.0027435
        k(   10) = (   0.5000000  -0.5000000   0.5000000), wk =   0.0013717
        k(   11) = (   0.0000000   0.1111111   0.0000000), wk =   0.0020576
        k(   12) = (  -0.0555556   0.1666667  -0.0555556), wk =   0.0082305
        k(   13) = (  -0.1111111   0.2222222  -0.1111111), wk =   0.0082305
        k(   14) = (  -0.1666667   0.2777778  -0.1666667), wk =   0.0082305
        k(   15) = (  -0.2222222   0.3333333  -0.2222222), wk =   0.0082305
        k(   16) = (  -0.2777778   0.3888889  -0.2777778), wk =   0.0082305
        k(   17) = (  -0.3333333   0.4444444  -0.3333333), wk =   0.0082305
        k(   18) = (  -0.3888889   0.5000000  -0.3888889), wk =   0.0082305
        k(   19) = (   0.5555556  -0.4444444   0.5555556), wk =   0.0082305
        k(   20) = (   0.5000000  -0.3888889   0.5000000), wk =   0.0082305
        k(   21) = (   0.4444444  -0.3333333   0.4444444), wk =   0.0082305
        k(   22) = (   0.3888889  -0.2777778   0.3888889), wk =   0.0082305
        k(   23) = (   0.3333333  -0.2222222   0.3333333), wk =   0.0082305
        k(   24) = (   0.2777778  -0.1666667   0.2777778), wk =   0.0082305
        k(   25) = (   0.2222222  -0.1111111   0.2222222), wk =   0.0082305
        k(   26) = (   0.1666667  -0.0555556   0.1666667), wk =   0.0082305
        k(   27) = (   0.1111111  -0.0000000   0.1111111), wk =   0.0041152
        k(   28) = (   0.0000000   0.2222222   0.0000000), wk =   0.0020576
        k(   29) = (  -0.0555556   0.2777778  -0.0555556), wk =   0.0082305
        k(   30) = (  -0.1111111   0.3333333  -0.1111111), wk =   0.0082305
        k(   31) = (  -0.1666667   0.3888889  -0.1666667), wk =   0.0082305
        k(   32) = (  -0.2222222   0.4444444  -0.2222222), wk =   0.0082305
        k(   33) = (  -0.2777778   0.5000000  -0.2777778), wk =   0.0082305
        k(   34) = (  -0.3333333   0.5555556  -0.3333333), wk =   0.0082305
        k(   35) = (   0.6111111  -0.3888889   0.6111111), wk =   0.0082305
        k(   36) = (   0.5555556  -0.3333333   0.5555556), wk =   0.0082305
        k(   37) = (   0.5000000  -0.2777778   0.5000000), wk =   0.0082305
        k(   38) = (   0.4444444  -0.2222222   0.4444444), wk =   0.0082305
        k(   39) = (   0.3888889  -0.1666667   0.3888889), wk =   0.0082305
        k(   40) = (   0.3333333  -0.1111111   0.3333333), wk =   0.0082305
        k(   41) = (   0.2777778  -0.0555556   0.2777778), wk =   0.0082305
        k(   42) = (   0.2222222  -0.0000000   0.2222222), wk =   0.0041152
        k(   43) = (   0.0000000   0.3333333   0.0000000), wk =   0.0020576
        k(   44) = (  -0.0555556   0.3888889  -0.0555556), wk =   0.0082305
        k(   45) = (  -0.1111111   0.4444444  -0.1111111), wk =   0.0082305
        k(   46) = (  -0.1666667   0.5000000  -0.1666667), wk =   0.0082305
        k(   47) = (  -0.2222222   0.5555556  -0.2222222), wk =   0.0082305
        k(   48) = (  -0.2777778   0.6111111  -0.2777778), wk =   0.0082305
        k(   49) = (   0.6666667  -0.3333333   0.6666667), wk =   0.0082305
        k(   50) = (   0.6111111  -0.2777778   0.6111111), wk =   0.0082305
        k(   51) = (   0.5555556  -0.2222222   0.5555556), wk =   0.0082305
        k(   52) = (   0.5000000  -0.1666667   0.5000000), wk =   0.0082305
        k(   53) = (   0.4444444  -0.1111111   0.4444444), wk =   0.0082305
        k(   54) = (   0.3888889  -0.0555556   0.3888889), wk =   0.0082305
        k(   55) = (   0.3333333   0.0000000   0.3333333), wk =   0.0041152
        k(   56) = (   0.0000000   0.4444444   0.0000000), wk =   0.0020576
        k(   57) = (  -0.0555556   0.5000000  -0.0555556), wk =   0.0082305
        k(   58) = (  -0.1111111   0.5555556  -0.1111111), wk =   0.0082305
        k(   59) = (  -0.1666667   0.6111111  -0.1666667), wk =   0.0082305
        k(   60) = (  -0.2222222   0.6666667  -0.2222222), wk =   0.0082305
        k(   61) = (   0.7222222  -0.2777778   0.7222222), wk =   0.0082305
        k(   62) = (   0.6666667  -0.2222222   0.6666667), wk =   0.0082305
        k(   63) = (   0.6111111  -0.1666667   0.6111111), wk =   0.0082305
        k(   64) = (   0.5555556  -0.1111111   0.5555556), wk =   0.0082305
        k(   65) = (   0.5000000  -0.0555556   0.5000000), wk =   0.0082305
        k(   66) = (   0.4444444   0.0000000   0.4444444), wk =   0.0041152
        k(   67) = (   0.0000000   0.5555556   0.0000000), wk =   0.0020576
        k(   68) = (  -0.0555556   0.6111111  -0.0555556), wk =   0.0082305
        k(   69) = (  -0.1111111   0.6666667  -0.1111111), wk =   0.0082305
        k(   70) = (  -0.1666667   0.7222222  -0.1666667), wk =   0.0082305
        k(   71) = (   0.7777778  -0.2222222   0.7777778), wk =   0.0082305
        k(   72) = (   0.7222222  -0.1666667   0.7222222), wk =   0.0082305
        k(   73) = (   0.6666667  -0.1111111   0.6666667), wk =   0.0082305
        k(   74) = (   0.6111111  -0.0555556   0.6111111), wk =   0.0082305
        k(   75) = (   0.5555556   0.0000000   0.5555556), wk =   0.0041152
        k(   76) = (   0.0000000   0.6666667   0.0000000), wk =   0.0020576
        k(   77) = (  -0.0555556   0.7222222  -0.0555556), wk =   0.0082305
        k(   78) = (  -0.1111111   0.7777778  -0.1111111), wk =   0.0082305
        k(   79) = (   0.8333333  -0.1666667   0.8333333), wk =   0.0082305
        k(   80) = (   0.7777778  -0.1111111   0.7777778), wk =   0.0082305
        k(   81) = (   0.7222222  -0.0555556   0.7222222), wk =   0.0082305
        k(   82) = (   0.6666667   0.0000000   0.6666667), wk =   0.0041152
        k(   83) = (   0.0000000   0.7777778   0.0000000), wk =   0.0020576
        k(   84) = (  -0.0555556   0.8333333  -0.0555556), wk =   0.0082305
        k(   85) = (   0.8888889  -0.1111111   0.8888889), wk =   0.0082305
        k(   86) = (   0.8333333  -0.0555556   0.8333333), wk =   0.0082305
        k(   87) = (   0.7777778   0.0000000   0.7777778), wk =   0.0041152
        k(   88) = (   0.0000000   0.8888889   0.0000000), wk =   0.0020576
        k(   89) = (   0.9444444  -0.0555556   0.9444444), wk =   0.0082305
        k(   90) = (   0.8888889   0.0000000   0.8888889), wk =   0.0041152
        k(   91) = (   0.0000000  -1.0000000   0.0000000), wk =   0.0010288
        k(   92) = (  -0.1111111   0.2222222   0.0000000), wk =   0.0082305
        k(   93) = (  -0.1666667   0.2777778  -0.0555556), wk =   0.0164609
        k(   94) = (  -0.2222222   0.3333333  -0.1111111), wk =   0.0164609
        k(   95) = (  -0.2777778   0.3888889  -0.1666667), wk =   0.0164609
        k(   96) = (  -0.3333333   0.4444444  -0.2222222), wk =   0.0164609
        k(   97) = (  -0.3888889   0.5000000  -0.2777778), wk =   0.0164609
        k(   98) = (   0.5555556  -0.4444444   0.6666667), wk =   0.0164609
        k(   99) = (   0.5000000  -0.3888889   0.6111111), wk =   0.0082305
        k(  100) = (  -0.1111111   0.3333333   0.0000000), wk =   0.0082305
        k(  101) = (  -0.1666667   0.3888889  -0.0555556), wk =   0.0164609
        k(  102) = (  -0.2222222   0.4444444  -0.1111111), wk =   0.0164609
        k(  103) = (  -0.2777778   0.5000000  -0.1666667), wk =   0.0164609
        k(  104) = (  -0.3333333   0.5555556  -0.2222222), wk =   0.0164609
        k(  105) = (   0.6111111  -0.3888889   0.7222222), wk =   0.0164609
        k(  106) = (   0.5555556  -0.3333333   0.6666667), wk =   0.0164609
        k(  107) = (   0.5000000  -0.2777778   0.6111111), wk =   0.0164609
        k(  108) = (   0.4444444  -0.2222222   0.5555556), wk =   0.0164609
        k(  109) = (   0.3888889  -0.1666667   0.5000000), wk =   0.0164609
        k(  110) = (   0.3333333  -0.1111111   0.4444444), wk =   0.0164609
        k(  111) = (   0.2777778  -0.0555556   0.3888889), wk =   0.0164609
        k(  112) = (   0.2222222  -0.0000000   0.3333333), wk =   0.0082305
        k(  113) = (  -0.1111111   0.4444444   0.0000000), wk =   0.0082305
        k(  114) = (  -0.1666667   0.5000000  -0.0555556), wk =   0.0164609
        k(  115) = (  -0.2222222   0.5555556  -0.1111111), wk =   0.0164609
        k(  116) = (  -0.2777778   0.6111111  -0.1666667), wk =   0.0164609
        k(  117) = (   0.6666667  -0.3333333   0.7777778), wk =   0.0164609
        k(  118) = (   0.6111111  -0.2777778   0.7222222), wk =   0.0164609
        k(  119) = (   0.5555556  -0.2222222   0.6666667), wk =   0.0164609
        k(  120) = (   0.5000000  -0.1666667   0.6111111), wk =   0.0164609
        k(  121) = (   0.4444444  -0.1111111   0.5555556), wk =   0.0164609
        k(  122) = (   0.3888889  -0.0555556   0.5000000), wk =   0.0164609
        k(  123) = (   0.3333333   0.0000000   0.4444444), wk =   0.0082305
        k(  124) = (  -0.1111111   0.5555556   0.0000000), wk =   0.0082305
        k(  125) = (  -0.1666667   0.6111111  -0.0555556), wk =   0.0164609
        k(  126) = (  -0.2222222   0.6666667  -0.1111111), wk =   0.0164609
        k(  127) = (   0.7222222  -0.2777778   0.8333333), wk =   0.0164609
        k(  128) = (   0.6666667  -0.2222222   0.7777778), wk =   0.0164609
        k(  129) = (   0.6111111  -0.1666667   0.7222222), wk =   0.0164609
        k(  130) = (   0.5555556  -0.1111111   0.6666667), wk =   0.0164609
        k(  131) = (   0.5000000  -0.0555556   0.6111111), wk =   0.0164609
        k(  132) = (   0.4444444   0.0000000   0.5555556), wk =   0.0082305
        k(  133) = (  -0.1111111   0.6666667  -0.0000000), wk =   0.0082305
        k(  134) = (  -0.1666667   0.7222222  -0.0555556), wk =   0.0164609
        k(  135) = (   0.7777778  -0.2222222   0.8888889), wk =   0.0164609
        k(  136) = (   0.7222222  -0.1666667   0.8333333), wk =   0.0164609
        k(  137) = (   0.6666667  -0.1111111   0.7777778), wk =   0.0164609
        k(  138) = (   0.6111111  -0.0555556   0.7222222), wk =   0.0164609
        k(  139) = (   0.5555556   0.0000000   0.6666667), wk =   0.0082305
        k(  140) = (  -0.1111111   0.7777778   0.0000000), wk =   0.0082305
        k(  141) = (   0.8333333  -0.1666667   0.9444444), wk =   0.0164609
        k(  142) = (   0.7777778  -0.1111111   0.8888889), wk =   0.0164609
        k(  143) = (   0.7222222  -0.0555556   0.8333333), wk =   0.0164609
        k(  144) = (   0.6666667   0.0000000   0.7777778), wk =   0.0082305
        k(  145) = (   0.8888889  -0.1111111   1.0000000), wk =   0.0082305
        k(  146) = (   0.8333333  -0.0555556   0.9444444), wk =   0.0164609
        k(  147) = (   0.7777778   0.0000000   0.8888889), wk =   0.0082305
        k(  148) = (  -0.1111111  -1.0000000   0.0000000), wk =   0.0041152
        k(  149) = (  -0.2222222   0.4444444   0.0000000), wk =   0.0082305
        k(  150) = (  -0.2777778   0.5000000  -0.0555556), wk =   0.0164609
        k(  151) = (  -0.3333333   0.5555556  -0.1111111), wk =   0.0164609
        k(  152) = (   0.6111111  -0.3888889   0.8333333), wk =   0.0164609
        k(  153) = (   0.5555556  -0.3333333   0.7777778), wk =   0.0164609
        k(  154) = (   0.5000000  -0.2777778   0.7222222), wk =   0.0082305
        k(  155) = (  -0.2222222   0.5555556   0.0000000), wk =   0.0082305
        k(  156) = (  -0.2777778   0.6111111  -0.0555556), wk =   0.0164609
        k(  157) = (   0.6666667  -0.3333333   0.8888889), wk =   0.0164609
        k(  158) = (   0.6111111  -0.2777778   0.8333333), wk =   0.0164609
        k(  159) = (   0.5555556  -0.2222222   0.7777778), wk =   0.0164609
        k(  160) = (   0.5000000  -0.1666667   0.7222222), wk =   0.0164609
        k(  161) = (   0.4444444  -0.1111111   0.6666667), wk =   0.0164609
        k(  162) = (   0.3888889  -0.0555556   0.6111111), wk =   0.0164609
        k(  163) = (   0.3333333   0.0000000   0.5555556), wk =   0.0082305
        k(  164) = (  -0.2222222   0.6666667   0.0000000), wk =   0.0082305
        k(  165) = (   0.7222222  -0.2777778   0.9444444), wk =   0.0164609
        k(  166) = (   0.6666667  -0.2222222   0.8888889), wk =   0.0164609
        k(  167) = (   0.6111111  -0.1666667   0.8333333), wk =   0.0164609
        k(  168) = (   0.5555556  -0.1111111   0.7777778), wk =   0.0164609
        k(  169) = (   0.5000000  -0.0555556   0.7222222), wk =   0.0164609
        k(  170) = (   0.4444444   0.0000000   0.6666667), wk =   0.0082305
        k(  171) = (   0.7777778  -0.2222222   1.0000000), wk =   0.0082305
        k(  172) = (   0.7222222  -0.1666667   0.9444444), wk =   0.0164609
        k(  173) = (   0.6666667  -0.1111111   0.8888889), wk =   0.0164609
        k(  174) = (   0.6111111  -0.0555556   0.8333333), wk =   0.0164609
        k(  175) = (   0.5555556   0.0000000   0.7777778), wk =   0.0082305
        k(  176) = (   0.7777778  -0.1111111   1.0000000), wk =   0.0082305
        k(  177) = (   0.7222222  -0.0555556   0.9444444), wk =   0.0164609
        k(  178) = (   0.6666667  -0.0000000   0.8888889), wk =   0.0082305
        k(  179) = (  -0.2222222  -1.0000000   0.0000000), wk =   0.0041152
        k(  180) = (   0.6666667  -0.3333333   1.0000000), wk =   0.0082305
        k(  181) = (   0.6111111  -0.2777778   0.9444444), wk =   0.0164609
        k(  182) = (   0.5555556  -0.2222222   0.8888889), wk =   0.0164609
        k(  183) = (   0.5000000  -0.1666667   0.8333333), wk =   0.0082305
        k(  184) = (   0.6666667  -0.2222222   1.0000000), wk =   0.0082305
        k(  185) = (   0.6111111  -0.1666667   0.9444444), wk =   0.0164609
        k(  186) = (   0.5555556  -0.1111111   0.8888889), wk =   0.0164609
        k(  187) = (   0.5000000  -0.0555556   0.8333333), wk =   0.0164609
        k(  188) = (   0.4444444   0.0000000   0.7777778), wk =   0.0082305
        k(  189) = (   0.6666667  -0.1111111   1.0000000), wk =   0.0082305
        k(  190) = (   0.6111111  -0.0555556   0.9444444), wk =   0.0164609
        k(  191) = (   0.5555556   0.0000000   0.8888889), wk =   0.0082305
        k(  192) = (  -0.3333333  -1.0000000   0.0000000), wk =   0.0041152
        k(  193) = (   0.5555556  -0.1111111   1.0000000), wk =   0.0082305
        k(  194) = (   0.5000000  -0.0555556   0.9444444), wk =   0.0082305
        k(  195) = (  -0.4444444  -1.0000000   0.0000000), wk =   0.0041152

                       cryst. coord.
        k(    1) = (   0.0000000   0.0000000   0.0000000), wk =   0.0003429
        k(    2) = (   0.0000000   0.0000000   0.0555556), wk =   0.0027435
        k(    3) = (   0.0000000   0.0000000   0.1111111), wk =   0.0027435
        k(    4) = (   0.0000000   0.0000000   0.1666667), wk =   0.0027435
        k(    5) = (   0.0000000   0.0000000   0.2222222), wk =   0.0027435
        k(    6) = (   0.0000000   0.0000000   0.2777778), wk =   0.0027435
        k(    7) = (   0.0000000   0.0000000   0.3333333), wk =   0.0027435
        k(    8) = (   0.0000000   0.0000000   0.3888889), wk =   0.0027435
        k(    9) = (   0.0000000   0.0000000   0.4444444), wk =   0.0027435
        k(   10) = (   0.0000000   0.0000000  -0.5000000), wk =   0.0013717
        k(   11) = (   0.0000000   0.0555556   0.0555556), wk =   0.0020576
        k(   12) = (   0.0000000   0.0555556   0.1111111), wk =   0.0082305
        k(   13) = (   0.0000000   0.0555556   0.1666667), wk =   0.0082305
        k(   14) = (   0.0000000   0.0555556   0.2222222), wk =   0.0082305
        k(   15) = (   0.0000000   0.0555556   0.2777778), wk =   0.0082305
        k(   16) = (   0.0000000   0.0555556   0.3333333), wk =   0.0082305
        k(   17) = (   0.0000000   0.0555556   0.3888889), wk =   0.0082305
        k(   18) = (   0.0000000   0.0555556   0.4444444), wk =   0.0082305
        k(   19) = (   0.0000000   0.0555556  -0.5000000), wk =   0.0082305
        k(   20) = (   0.0000000   0.0555556  -0.4444444), wk =   0.0082305
        k(   21) = (   0.0000000   0.0555556  -0.3888889), wk =   0.0082305
        k(   22) = (   0.0000000   0.0555556  -0.3333333), wk =   0.0082305
        k(   23) = (   0.0000000   0.0555556  -0.2777778), wk =   0.0082305
        k(   24) = (   0.0000000   0.0555556  -0.2222222), wk =   0.0082305
        k(   25) = (   0.0000000   0.0555556  -0.1666667), wk =   0.0082305
        k(   26) = (   0.0000000   0.0555556  -0.1111111), wk =   0.0082305
        k(   27) = (   0.0000000   0.0555556  -0.0555556), wk =   0.0041152
        k(   28) = (   0.0000000   0.1111111   0.1111111), wk =   0.0020576
        k(   29) = (   0.0000000   0.1111111   0.1666667), wk =   0.0082305
        k(   30) = (   0.0000000   0.1111111   0.2222222), wk =   0.0082305
        k(   31) = (   0.0000000   0.1111111   0.2777778), wk =   0.0082305
        k(   32) = (   0.0000000   0.1111111   0.3333333), wk =   0.0082305
        k(   33) = (   0.0000000   0.1111111   0.3888889), wk =   0.0082305
        k(   34) = (   0.0000000   0.1111111   0.4444444), wk =   0.0082305
        k(   35) = (   0.0000000   0.1111111  -0.5000000), wk =   0.0082305
        k(   36) = (   0.0000000   0.1111111  -0.4444444), wk =   0.0082305
        k(   37) = (   0.0000000   0.1111111  -0.3888889), wk =   0.0082305
        k(   38) = (   0.0000000   0.1111111  -0.3333333), wk =   0.0082305
        k(   39) = (   0.0000000   0.1111111  -0.2777778), wk =   0.0082305
        k(   40) = (   0.0000000   0.1111111  -0.2222222), wk =   0.0082305
        k(   41) = (   0.0000000   0.1111111  -0.1666667), wk =   0.0082305
        k(   42) = (   0.0000000   0.1111111  -0.1111111), wk =   0.0041152
        k(   43) = (   0.0000000   0.1666667   0.1666667), wk =   0.0020576
        k(   44) = (   0.0000000   0.1666667   0.2222222), wk =   0.0082305
        k(   45) = (   0.0000000   0.1666667   0.2777778), wk =   0.0082305
        k(   46) = (   0.0000000   0.1666667   0.3333333), wk =   0.0082305
        k(   47) = (   0.0000000   0.1666667   0.3888889), wk =   0.0082305
        k(   48) = (   0.0000000   0.1666667   0.4444444), wk =   0.0082305
        k(   49) = (   0.0000000   0.1666667  -0.5000000), wk =   0.0082305
        k(   50) = (   0.0000000   0.1666667  -0.4444444), wk =   0.0082305
        k(   51) = (   0.0000000   0.1666667  -0.3888889), wk =   0.0082305
        k(   52) = (   0.0000000   0.1666667  -0.3333333), wk =   0.0082305
        k(   53) = (   0.0000000   0.1666667  -0.2777778), wk =   0.0082305
        k(   54) = (   0.0000000   0.1666667  -0.2222222), wk =   0.0082305
        k(   55) = (   0.0000000   0.1666667  -0.1666667), wk =   0.0041152
        k(   56) = (   0.0000000   0.2222222   0.2222222), wk =   0.0020576
        k(   57) = (   0.0000000   0.2222222   0.2777778), wk =   0.0082305
        k(   58) = (   0.0000000   0.2222222   0.3333333), wk =   0.0082305
        k(   59) = (   0.0000000   0.2222222   0.3888889), wk =   0.0082305
        k(   60) = (   0.0000000   0.2222222   0.4444444), wk =   0.0082305
        k(   61) = (   0.0000000   0.2222222  -0.5000000), wk =   0.0082305
        k(   62) = (   0.0000000   0.2222222  -0.4444444), wk =   0.0082305
        k(   63) = (   0.0000000   0.2222222  -0.3888889), wk =   0.0082305
        k(   64) = (   0.0000000   0.2222222  -0.3333333), wk =   0.0082305
        k(   65) = (   0.0000000   0.2222222  -0.2777778), wk =   0.0082305
        k(   66) = (   0.0000000   0.2222222  -0.2222222), wk =   0.0041152
        k(   67) = (   0.0000000   0.2777778   0.2777778), wk =   0.0020576
        k(   68) = (   0.0000000   0.2777778   0.3333333), wk =   0.0082305
        k(   69) = (   0.0000000   0.2777778   0.3888889), wk =   0.0082305
        k(   70) = (   0.0000000   0.2777778   0.4444444), wk =   0.0082305
        k(   71) = (   0.0000000   0.2777778  -0.5000000), wk =   0.0082305
        k(   72) = (   0.0000000   0.2777778  -0.4444444), wk =   0.0082305
        k(   73) = (   0.0000000   0.2777778  -0.3888889), wk =   0.0082305
        k(   74) = (   0.0000000   0.2777778  -0.3333333), wk =   0.0082305
        k(   75) = (   0.0000000   0.2777778  -0.2777778), wk =   0.0041152
        k(   76) = (   0.0000000   0.3333333   0.3333333), wk =   0.0020576
        k(   77) = (   0.0000000   0.3333333   0.3888889), wk =   0.0082305
        k(   78) = (   0.0000000   0.3333333   0.4444444), wk =   0.0082305
        k(   79) = (   0.0000000   0.3333333  -0.5000000), wk =   0.0082305
        k(   80) = (   0.0000000   0.3333333  -0.4444444), wk =   0.0082305
        k(   81) = (   0.0000000   0.3333333  -0.3888889), wk =   0.0082305
        k(   82) = (   0.0000000   0.3333333  -0.3333333), wk =   0.0041152
        k(   83) = (   0.0000000   0.3888889   0.3888889), wk =   0.0020576
        k(   84) = (   0.0000000   0.3888889   0.4444444), wk =   0.0082305
        k(   85) = (   0.0000000   0.3888889  -0.5000000), wk =   0.0082305
        k(   86) = (   0.0000000   0.3888889  -0.4444444), wk =   0.0082305
        k(   87) = (   0.0000000   0.3888889  -0.3888889), wk =   0.0041152
        k(   88) = (   0.0000000   0.4444444   0.4444444), wk =   0.0020576
        k(   89) = (   0.0000000   0.4444444  -0.5000000), wk =   0.0082305
        k(   90) = (   0.0000000   0.4444444  -0.4444444), wk =   0.0041152
        k(   91) = (   0.0000000  -0.5000000  -0.5000000), wk =   0.0010288
        k(   92) = (   0.0555556   0.1111111   0.1666667), wk =   0.0082305
        k(   93) = (   0.0555556   0.1111111   0.2222222), wk =   0.0164609
        k(   94) = (   0.0555556   0.1111111   0.2777778), wk =   0.0164609
        k(   95) = (   0.0555556   0.1111111   0.3333333), wk =   0.0164609
        k(   96) = (   0.0555556   0.1111111   0.3888889), wk =   0.0164609
        k(   97) = (   0.0555556   0.1111111   0.4444444), wk =   0.0164609
        k(   98) = (   0.0555556   0.1111111  -0.5000000), wk =   0.0164609
        k(   99) = (   0.0555556   0.1111111  -0.4444444), wk =   0.0082305
        k(  100) = (   0.0555556   0.1666667   0.2222222), wk =   0.0082305
        k(  101) = (   0.0555556   0.1666667   0.2777778), wk =   0.0164609
        k(  102) = (   0.0555556   0.1666667   0.3333333), wk =   0.0164609
        k(  103) = (   0.0555556   0.1666667   0.3888889), wk =   0.0164609
        k(  104) = (   0.0555556   0.1666667   0.4444444), wk =   0.0164609
        k(  105) = (   0.0555556   0.1666667  -0.5000000), wk =   0.0164609
        k(  106) = (   0.0555556   0.1666667  -0.4444444), wk =   0.0164609
        k(  107) = (   0.0555556   0.1666667  -0.3888889), wk =   0.0164609
        k(  108) = (   0.0555556   0.1666667  -0.3333333), wk =   0.0164609
        k(  109) = (   0.0555556   0.1666667  -0.2777778), wk =   0.0164609
        k(  110) = (   0.0555556   0.1666667  -0.2222222), wk =   0.0164609
        k(  111) = (   0.0555556   0.1666667  -0.1666667), wk =   0.0164609
        k(  112) = (   0.0555556   0.1666667  -0.1111111), wk =   0.0082305
        k(  113) = (   0.0555556   0.2222222   0.2777778), wk =   0.0082305
        k(  114) = (   0.0555556   0.2222222   0.3333333), wk =   0.0164609
        k(  115) = (   0.0555556   0.2222222   0.3888889), wk =   0.0164609
        k(  116) = (   0.0555556   0.2222222   0.4444444), wk =   0.0164609
        k(  117) = (   0.0555556   0.2222222  -0.5000000), wk =   0.0164609
        k(  118) = (   0.0555556   0.2222222  -0.4444444), wk =   0.0164609
        k(  119) = (   0.0555556   0.2222222  -0.3888889), wk =   0.0164609
        k(  120) = (   0.0555556   0.2222222  -0.3333333), wk =   0.0164609
        k(  121) = (   0.0555556   0.2222222  -0.2777778), wk =   0.0164609
        k(  122) = (   0.0555556   0.2222222  -0.2222222), wk =   0.0164609
        k(  123) = (   0.0555556   0.2222222  -0.1666667), wk =   0.0082305
        k(  124) = (   0.0555556   0.2777778   0.3333333), wk =   0.0082305
        k(  125) = (   0.0555556   0.2777778   0.3888889), wk =   0.0164609
        k(  126) = (   0.0555556   0.2777778   0.4444444), wk =   0.0164609
        k(  127) = (   0.0555556   0.2777778  -0.5000000), wk =   0.0164609
        k(  128) = (   0.0555556   0.2777778  -0.4444444), wk =   0.0164609
        k(  129) = (   0.0555556   0.2777778  -0.3888889), wk =   0.0164609
        k(  130) = (   0.0555556   0.2777778  -0.3333333), wk =   0.0164609
        k(  131) = (   0.0555556   0.2777778  -0.2777778), wk =   0.0164609
        k(  132) = (   0.0555556   0.2777778  -0.2222222), wk =   0.0082305
        k(  133) = (   0.0555556   0.3333333   0.3888889), wk =   0.0082305
        k(  134) = (   0.0555556   0.3333333   0.4444444), wk =   0.0164609
        k(  135) = (   0.0555556   0.3333333  -0.5000000), wk =   0.0164609
        k(  136) = (   0.0555556   0.3333333  -0.4444444), wk =   0.0164609
        k(  137) = (   0.0555556   0.3333333  -0.3888889), wk =   0.0164609
        k(  138) = (   0.0555556   0.3333333  -0.3333333), wk =   0.0164609
        k(  139) = (   0.0555556   0.3333333  -0.2777778), wk =   0.0082305
        k(  140) = (   0.0555556   0.3888889   0.4444444), wk =   0.0082305
        k(  141) = (   0.0555556   0.3888889  -0.5000000), wk =   0.0164609
        k(  142) = (   0.0555556   0.3888889  -0.4444444), wk =   0.0164609
        k(  143) = (   0.0555556   0.3888889  -0.3888889), wk =   0.0164609
        k(  144) = (   0.0555556   0.3888889  -0.3333333), wk =   0.0082305
        k(  145) = (   0.0555556   0.4444444  -0.5000000), wk =   0.0082305
        k(  146) = (   0.0555556   0.4444444  -0.4444444), wk =   0.0164609
        k(  147) = (   0.0555556   0.4444444  -0.3888889), wk =   0.0082305
        k(  148) = (   0.0555556  -0.5000000  -0.4444444), wk =   0.0041152
        k(  149) = (   0.1111111   0.2222222   0.3333333), wk =   0.0082305
        k(  150) = (   0.1111111   0.2222222   0.3888889), wk =   0.0164609
        k(  151) = (   0.1111111   0.2222222   0.4444444), wk =   0.0164609
        k(  152) = (   0.1111111   0.2222222  -0.5000000), wk =   0.0164609
        k(  153) = (   0.1111111   0.2222222  -0.4444444), wk =   0.0164609
        k(  154) = (   0.1111111   0.2222222  -0.3888889), wk =   0.0082305
        k(  155) = (   0.1111111   0.2777778   0.3888889), wk =   0.0082305
        k(  156) = (   0.1111111   0.2777778   0.4444444), wk =   0.0164609
        k(  157) = (   0.1111111   0.2777778  -0.5000000), wk =   0.0164609
        k(  158) = (   0.1111111   0.2777778  -0.4444444), wk =   0.0164609
        k(  159) = (   0.1111111   0.2777778  -0.3888889), wk =   0.0164609
        k(  160) = (   0.1111111   0.2777778  -0.3333333), wk =   0.0164609
        k(  161) = (   0.1111111   0.2777778  -0.2777778), wk =   0.0164609
        k(  162) = (   0.1111111   0.2777778  -0.2222222), wk =   0.0164609
        k(  163) = (   0.1111111   0.2777778  -0.1666667), wk =   0.0082305
        k(  164) = (   0.1111111   0.3333333   0.4444444), wk =   0.0082305
        k(  165) = (   0.1111111   0.3333333  -0.5000000), wk =   0.0164609
        k(  166) = (   0.1111111   0.3333333  -0.4444444), wk =   0.0164609
        k(  167) = (   0.1111111   0.3333333  -0.3888889), wk =   0.0164609
        k(  168) = (   0.1111111   0.3333333  -0.3333333), wk =   0.0164609
        k(  169) = (   0.1111111   0.3333333  -0.2777778), wk =   0.0164609
        k(  170) = (   0.1111111   0.3333333  -0.2222222), wk =   0.0082305
        k(  171) = (   0.1111111   0.3888889  -0.5000000), wk =   0.0082305
        k(  172) = (   0.1111111   0.3888889  -0.4444444), wk =   0.0164609
        k(  173) = (   0.1111111   0.3888889  -0.3888889), wk =   0.0164609
        k(  174) = (   0.1111111   0.3888889  -0.3333333), wk =   0.0164609
        k(  175) = (   0.1111111   0.3888889  -0.2777778), wk =   0.0082305
        k(  176) = (   0.1111111   0.4444444  -0.4444444), wk =   0.0082305
        k(  177) = (   0.1111111   0.4444444  -0.3888889), wk =   0.0164609
        k(  178) = (   0.1111111   0.4444444  -0.3333333), wk =   0.0082305
        k(  179) = (   0.1111111  -0.5000000  -0.3888889), wk =   0.0041152
        k(  180) = (   0.1666667   0.3333333  -0.5000000), wk =   0.0082305
        k(  181) = (   0.1666667   0.3333333  -0.4444444), wk =   0.0164609
        k(  182) = (   0.1666667   0.3333333  -0.3888889), wk =   0.0164609
        k(  183) = (   0.1666667   0.3333333  -0.3333333), wk =   0.0082305
        k(  184) = (   0.1666667   0.3888889  -0.4444444), wk =   0.0082305
        k(  185) = (   0.1666667   0.3888889  -0.3888889), wk =   0.0164609
        k(  186) = (   0.1666667   0.3888889  -0.3333333), wk =   0.0164609
        k(  187) = (   0.1666667   0.3888889  -0.2777778), wk =   0.0164609
        k(  188) = (   0.1666667   0.3888889  -0.2222222), wk =   0.0082305
        k(  189) = (   0.1666667   0.4444444  -0.3888889), wk =   0.0082305
        k(  190) = (   0.1666667   0.4444444  -0.3333333), wk =   0.0164609
        k(  191) = (   0.1666667   0.4444444  -0.2777778), wk =   0.0082305
        k(  192) = (   0.1666667  -0.5000000  -0.3333333), wk =   0.0041152
        k(  193) = (   0.2222222   0.4444444  -0.3333333), wk =   0.0082305
        k(  194) = (   0.2222222   0.4444444  -0.2777778), wk =   0.0082305
        k(  195) = (   0.2222222  -0.5000000  -0.2777778), wk =   0.0041152

     Dense  grid:    13539 G-vectors     FFT dimensions: (  36,  36,  36)

     Dynamical RAM for                 wfc:       0.05 MB

     Dynamical RAM for     wfc (w. buffer):       0.05 MB

     Dynamical RAM for           str. fact:       0.05 MB

     Dynamical RAM for           local pot:       0.00 MB

     Dynamical RAM for          nlocal pot:       0.23 MB

     Dynamical RAM for                qrad:       1.14 MB

     Dynamical RAM for          rho,v,vnew:       0.42 MB

     Dynamical RAM for           G-vectors:       0.22 MB

     Dynamical RAM for          h,s,v(r/c):       0.01 MB

     Dynamical RAM for          <psi|beta>:       0.00 MB

     Dynamical RAM for                 psi:       0.10 MB

     Dynamical RAM for                hpsi:       0.10 MB

     Dynamical RAM for                spsi:       0.10 MB

     Dynamical RAM for      wfcinit/wfcrot:       0.10 MB

     Dynamical RAM for           addusdens:       9.71 MB

     Estimated static dynamical RAM per process >       2.66 MB

     Estimated max dynamical RAM per process >      12.37 MB

     Estimated total dynamical RAM >      49.47 MB

     Check: negative core charge=   -0.000001

     The potential is recalculated from file :
     ./tmp/Si.save/charge-density

     Starting wfcs are    8 randomized atomic wfcs

     Band Structure Calculation
     Davidson diagonalization with overlap

     Computing kpt #:     1  of   195
     total cpu time spent up to now is        1.6 secs

     Computing kpt #:     2  of   195
     total cpu time spent up to now is        1.7 secs

     Computing kpt #:     3  of   195
     total cpu time spent up to now is        1.9 secs

     Computing kpt #:     4  of   195
     total cpu time spent up to now is        2.0 secs

     Computing kpt #:     5  of   195
     total cpu time spent up to now is        2.1 secs

     Computing kpt #:     6  of   195
     total cpu time spent up to now is        2.2 secs

     Computing kpt #:     7  of   195
     total cpu time spent up to now is        2.4 secs

     Computing kpt #:     8  of   195
     total cpu time spent up to now is        2.5 secs

     Computing kpt #:     9  of   195
     total cpu time spent up to now is        2.6 secs

     Computing kpt #:    10  of   195
     total cpu time spent up to now is        2.7 secs

     Computing kpt #:    11  of   195
     total cpu time spent up to now is        2.8 secs

     Computing kpt #:    12  of   195
     total cpu time spent up to now is        3.0 secs

     Computing kpt #:    13  of   195
     total cpu time spent up to now is        3.2 secs

     Computing kpt #:    14  of   195
     total cpu time spent up to now is        3.4 secs

     Computing kpt #:    15  of   195
     total cpu time spent up to now is        3.5 secs

     Computing kpt #:    16  of   195
     total cpu time spent up to now is        3.7 secs

     Computing kpt #:    17  of   195
     total cpu time spent up to now is        3.8 secs

     Computing kpt #:    18  of   195
     total cpu time spent up to now is        3.9 secs

     Computing kpt #:    19  of   195
     total cpu time spent up to now is        4.1 secs

     Computing kpt #:    20  of   195
     total cpu time spent up to now is        4.2 secs

     Computing kpt #:    21  of   195
     total cpu time spent up to now is        4.4 secs

     Computing kpt #:    22  of   195
     total cpu time spent up to now is        4.7 secs

     Computing kpt #:    23  of   195
     total cpu time spent up to now is        4.9 secs

     Computing kpt #:    24  of   195
     total cpu time spent up to now is        5.0 secs

     Computing kpt #:    25  of   195
     total cpu time spent up to now is        5.1 secs

     Computing kpt #:    26  of   195
     total cpu time spent up to now is        5.3 secs

     Computing kpt #:    27  of   195
     total cpu time spent up to now is        5.4 secs

     Computing kpt #:    28  of   195
     total cpu time spent up to now is        5.5 secs

     Computing kpt #:    29  of   195
     total cpu time spent up to now is        5.7 secs

     Computing kpt #:    30  of   195
     total cpu time spent up to now is        5.8 secs

     Computing kpt #:    31  of   195
     total cpu time spent up to now is        6.0 secs

     Computing kpt #:    32  of   195
     total cpu time spent up to now is        6.2 secs

     Computing kpt #:    33  of   195
     total cpu time spent up to now is        6.4 secs

     Computing kpt #:    34  of   195
     total cpu time spent up to now is        6.5 secs

     Computing kpt #:    35  of   195
     total cpu time spent up to now is        6.6 secs

     Computing kpt #:    36  of   195
     total cpu time spent up to now is        6.9 secs

     Computing kpt #:    37  of   195
     total cpu time spent up to now is        7.0 secs

     Computing kpt #:    38  of   195
     total cpu time spent up to now is        7.2 secs

     Computing kpt #:    39  of   195
     total cpu time spent up to now is        7.3 secs

     Computing kpt #:    40  of   195
     total cpu time spent up to now is        7.4 secs

     Computing kpt #:    41  of   195
     total cpu time spent up to now is        7.5 secs

     Computing kpt #:    42  of   195
     total cpu time spent up to now is        7.7 secs

     Computing kpt #:    43  of   195
     total cpu time spent up to now is        7.9 secs

     Computing kpt #:    44  of   195
     total cpu time spent up to now is        8.1 secs

     Computing kpt #:    45  of   195
     total cpu time spent up to now is        8.2 secs

     Computing kpt #:    46  of   195
     total cpu time spent up to now is        8.4 secs

     Computing kpt #:    47  of   195
     total cpu time spent up to now is        8.5 secs

     Computing kpt #:    48  of   195
     total cpu time spent up to now is        8.6 secs

     Computing kpt #:    49  of   195
     total cpu time spent up to now is        8.7 secs

     Computing kpt #:    50  of   195
     total cpu time spent up to now is        8.8 secs

     Computing kpt #:    51  of   195
     total cpu time spent up to now is        9.0 secs

     Computing kpt #:    52  of   195
     total cpu time spent up to now is        9.1 secs

     Computing kpt #:    53  of   195
     total cpu time spent up to now is        9.2 secs

     Computing kpt #:    54  of   195
     total cpu time spent up to now is        9.3 secs

     Computing kpt #:    55  of   195
     total cpu time spent up to now is        9.5 secs

     Computing kpt #:    56  of   195
     total cpu time spent up to now is        9.6 secs

     Computing kpt #:    57  of   195
     total cpu time spent up to now is        9.7 secs

     Computing kpt #:    58  of   195
     total cpu time spent up to now is       10.0 secs

     Computing kpt #:    59  of   195
     total cpu time spent up to now is       10.1 secs

     Computing kpt #:    60  of   195
     total cpu time spent up to now is       10.2 secs

     Computing kpt #:    61  of   195
     total cpu time spent up to now is       10.3 secs

     Computing kpt #:    62  of   195
     total cpu time spent up to now is       10.5 secs

     Computing kpt #:    63  of   195
     total cpu time spent up to now is       10.6 secs

     Computing kpt #:    64  of   195
     total cpu time spent up to now is       10.8 secs

     Computing kpt #:    65  of   195
     total cpu time spent up to now is       10.9 secs

     Computing kpt #:    66  of   195
     total cpu time spent up to now is       11.1 secs

     Computing kpt #:    67  of   195
     total cpu time spent up to now is       11.2 secs

     Computing kpt #:    68  of   195
     total cpu time spent up to now is       11.3 secs

     Computing kpt #:    69  of   195
     total cpu time spent up to now is       11.4 secs

     Computing kpt #:    70  of   195
     total cpu time spent up to now is       11.5 secs

     Computing kpt #:    71  of   195
     total cpu time spent up to now is       11.7 secs

     Computing kpt #:    72  of   195
     total cpu time spent up to now is       11.8 secs

     Computing kpt #:    73  of   195
     total cpu time spent up to now is       11.9 secs

     Computing kpt #:    74  of   195
     total cpu time spent up to now is       12.1 secs

     Computing kpt #:    75  of   195
     total cpu time spent up to now is       12.3 secs

     Computing kpt #:    76  of   195
     total cpu time spent up to now is       12.4 secs

     Computing kpt #:    77  of   195
     total cpu time spent up to now is       12.5 secs

     Computing kpt #:    78  of   195
     total cpu time spent up to now is       12.6 secs

     Computing kpt #:    79  of   195
     total cpu time spent up to now is       12.7 secs

     Computing kpt #:    80  of   195
     total cpu time spent up to now is       12.9 secs

     Computing kpt #:    81  of   195
     total cpu time spent up to now is       13.0 secs

     Computing kpt #:    82  of   195
     total cpu time spent up to now is       13.2 secs

     Computing kpt #:    83  of   195
     total cpu time spent up to now is       13.3 secs

     Computing kpt #:    84  of   195
     total cpu time spent up to now is       13.5 secs

     Computing kpt #:    85  of   195
     total cpu time spent up to now is       13.6 secs

     Computing kpt #:    86  of   195
     total cpu time spent up to now is       13.8 secs

     Computing kpt #:    87  of   195
     total cpu time spent up to now is       13.9 secs

     Computing kpt #:    88  of   195
     total cpu time spent up to now is       14.0 secs

     Computing kpt #:    89  of   195
     total cpu time spent up to now is       14.1 secs

     Computing kpt #:    90  of   195
     total cpu time spent up to now is       14.3 secs

     Computing kpt #:    91  of   195
     total cpu time spent up to now is       14.4 secs

     Computing kpt #:    92  of   195
     total cpu time spent up to now is       14.6 secs

     Computing kpt #:    93  of   195
     total cpu time spent up to now is       14.7 secs

     Computing kpt #:    94  of   195
     total cpu time spent up to now is       14.8 secs

     Computing kpt #:    95  of   195
     total cpu time spent up to now is       15.0 secs

     Computing kpt #:    96  of   195
     total cpu time spent up to now is       15.1 secs

     Computing kpt #:    97  of   195
     total cpu time spent up to now is       15.2 secs

     Computing kpt #:    98  of   195
     total cpu time spent up to now is       15.4 secs

     Computing kpt #:    99  of   195
     total cpu time spent up to now is       15.5 secs

     Computing kpt #:   100  of   195
     total cpu time spent up to now is       15.7 secs

     Computing kpt #:   101  of   195
     total cpu time spent up to now is       15.8 secs

     Computing kpt #:   102  of   195
     total cpu time spent up to now is       16.0 secs

     Computing kpt #:   103  of   195
     total cpu time spent up to now is       16.1 secs

     Computing kpt #:   104  of   195
     total cpu time spent up to now is       16.2 secs

     Computing kpt #:   105  of   195
     total cpu time spent up to now is       16.3 secs

     Computing kpt #:   106  of   195
     total cpu time spent up to now is       16.5 secs

     Computing kpt #:   107  of   195
     total cpu time spent up to now is       16.6 secs

     Computing kpt #:   108  of   195
     total cpu time spent up to now is       16.7 secs

     Computing kpt #:   109  of   195
     total cpu time spent up to now is       16.8 secs

     Computing kpt #:   110  of   195
     total cpu time spent up to now is       17.0 secs

     Computing kpt #:   111  of   195
     total cpu time spent up to now is       17.1 secs

     Computing kpt #:   112  of   195
     total cpu time spent up to now is       17.3 secs

     Computing kpt #:   113  of   195
     total cpu time spent up to now is       17.4 secs

     Computing kpt #:   114  of   195
     total cpu time spent up to now is       17.5 secs

     Computing kpt #:   115  of   195
     total cpu time spent up to now is       17.7 secs

     Computing kpt #:   116  of   195
     total cpu time spent up to now is       17.8 secs

     Computing kpt #:   117  of   195
     total cpu time spent up to now is       17.9 secs

     Computing kpt #:   118  of   195
     total cpu time spent up to now is       18.0 secs

     Computing kpt #:   119  of   195
     total cpu time spent up to now is       20.4 secs

     Computing kpt #:   120  of   195
     total cpu time spent up to now is       20.6 secs

     Computing kpt #:   121  of   195
     total cpu time spent up to now is       20.8 secs

     Computing kpt #:   122  of   195
     total cpu time spent up to now is       20.9 secs

     Computing kpt #:   123  of   195
     total cpu time spent up to now is       21.0 secs

     Computing kpt #:   124  of   195
     total cpu time spent up to now is       21.2 secs

     Computing kpt #:   125  of   195
     total cpu time spent up to now is       21.3 secs

     Computing kpt #:   126  of   195
     total cpu time spent up to now is       21.4 secs

     Computing kpt #:   127  of   195
     total cpu time spent up to now is       21.5 secs

     Computing kpt #:   128  of   195
     total cpu time spent up to now is       21.6 secs

     Computing kpt #:   129  of   195
     total cpu time spent up to now is       21.8 secs

     Computing kpt #:   130  of   195
     total cpu time spent up to now is       21.9 secs

     Computing kpt #:   131  of   195
     total cpu time spent up to now is       22.1 secs

     Computing kpt #:   132  of   195
     total cpu time spent up to now is       22.2 secs

     Computing kpt #:   133  of   195
     total cpu time spent up to now is       22.3 secs

     Computing kpt #:   134  of   195
     total cpu time spent up to now is       22.4 secs

     Computing kpt #:   135  of   195
     total cpu time spent up to now is       22.5 secs

     Computing kpt #:   136  of   195
     total cpu time spent up to now is       22.7 secs

     Computing kpt #:   137  of   195
     total cpu time spent up to now is       22.8 secs

     Computing kpt #:   138  of   195
     total cpu time spent up to now is       23.0 secs

     Computing kpt #:   139  of   195
     total cpu time spent up to now is       23.2 secs

     Computing kpt #:   140  of   195
     total cpu time spent up to now is       23.3 secs

     Computing kpt #:   141  of   195
     total cpu time spent up to now is       23.4 secs

     Computing kpt #:   142  of   195
     total cpu time spent up to now is       23.6 secs

     Computing kpt #:   143  of   195
     total cpu time spent up to now is       23.7 secs

     Computing kpt #:   144  of   195
     total cpu time spent up to now is       23.9 secs

     Computing kpt #:   145  of   195
     total cpu time spent up to now is       24.0 secs

     Computing kpt #:   146  of   195
     total cpu time spent up to now is       24.2 secs

     Computing kpt #:   147  of   195
     total cpu time spent up to now is       24.3 secs

     Computing kpt #:   148  of   195
     total cpu time spent up to now is       24.6 secs

     Computing kpt #:   149  of   195
     total cpu time spent up to now is       24.7 secs

     Computing kpt #:   150  of   195
     total cpu time spent up to now is       24.9 secs

     Computing kpt #:   151  of   195
     total cpu time spent up to now is       25.1 secs

     Computing kpt #:   152  of   195
     total cpu time spent up to now is       25.2 secs

     Computing kpt #:   153  of   195
     total cpu time spent up to now is       25.4 secs

     Computing kpt #:   154  of   195
     total cpu time spent up to now is       25.7 secs

     Computing kpt #:   155  of   195
     total cpu time spent up to now is       25.8 secs

     Computing kpt #:   156  of   195
     total cpu time spent up to now is       26.0 secs

     Computing kpt #:   157  of   195
     total cpu time spent up to now is       26.1 secs

     Computing kpt #:   158  of   195
     total cpu time spent up to now is       26.3 secs

     Computing kpt #:   159  of   195
     total cpu time spent up to now is       26.5 secs

     Computing kpt #:   160  of   195
     total cpu time spent up to now is       26.9 secs

     Computing kpt #:   161  of   195
     total cpu time spent up to now is       27.2 secs

     Computing kpt #:   162  of   195
     total cpu time spent up to now is       27.5 secs

     Computing kpt #:   163  of   195
     total cpu time spent up to now is       27.7 secs

     Computing kpt #:   164  of   195
     total cpu time spent up to now is       27.9 secs

     Computing kpt #:   165  of   195
     total cpu time spent up to now is       28.0 secs

     Computing kpt #:   166  of   195
     total cpu time spent up to now is       28.2 secs

     Computing kpt #:   167  of   195
     total cpu time spent up to now is       28.4 secs

     Computing kpt #:   168  of   195
     total cpu time spent up to now is       28.6 secs

     Computing kpt #:   169  of   195
     total cpu time spent up to now is       28.8 secs

     Computing kpt #:   170  of   195
     total cpu time spent up to now is       28.9 secs

     Computing kpt #:   171  of   195
     total cpu time spent up to now is       29.0 secs

     Computing kpt #:   172  of   195
     total cpu time spent up to now is       29.2 secs

     Computing kpt #:   173  of   195
     total cpu time spent up to now is       29.3 secs

     Computing kpt #:   174  of   195
     total cpu time spent up to now is       29.5 secs

     Computing kpt #:   175  of   195
     total cpu time spent up to now is       29.7 secs

     Computing kpt #:   176  of   195
     total cpu time spent up to now is       29.8 secs

     Computing kpt #:   177  of   195
     total cpu time spent up to now is       30.0 secs

     Computing kpt #:   178  of   195
     total cpu time spent up to now is       30.1 secs

     Computing kpt #:   179  of   195
     total cpu time spent up to now is       30.3 secs

     Computing kpt #:   180  of   195
     total cpu time spent up to now is       30.5 secs

     Computing kpt #:   181  of   195
     total cpu time spent up to now is       30.7 secs

     Computing kpt #:   182  of   195
     total cpu time spent up to now is       30.9 secs

     Computing kpt #:   183  of   195
     total cpu time spent up to now is       31.1 secs

     Computing kpt #:   184  of   195
     total cpu time spent up to now is       31.3 secs

     Computing kpt #:   185  of   195
     total cpu time spent up to now is       31.4 secs

     Computing kpt #:   186  of   195
     total cpu time spent up to now is       31.6 secs

     Computing kpt #:   187  of   195
     total cpu time spent up to now is       31.8 secs

     Computing kpt #:   188  of   195
     total cpu time spent up to now is       31.9 secs

     Computing kpt #:   189  of   195
     total cpu time spent up to now is       32.1 secs

     Computing kpt #:   190  of   195
     total cpu time spent up to now is       32.2 secs

     Computing kpt #:   191  of   195
     total cpu time spent up to now is       32.4 secs

     Computing kpt #:   192  of   195
     total cpu time spent up to now is       32.6 secs

     Computing kpt #:   193  of   195
     total cpu time spent up to now is       32.7 secs

     Computing kpt #:   194  of   195
     total cpu time spent up to now is       33.0 secs

     Computing kpt #:   195  of   195
     total cpu time spent up to now is       33.2 secs

     ethr =  1.25E-10,  avg # of iterations = 34.0

     total cpu time spent up to now is       33.3 secs

     End of band structure calculation

          k = 0.0000 0.0000 0.0000 (  1687 PWs)   bands (ev):

    -5.9099   5.7607   5.7607   5.7607   8.3050   8.3050   8.3050   8.6335

     occupation numbers 
     1.0000   1.0000   1.0000   1.0000   0.0000   0.0000   0.0000   0.0000

          k =-0.0556 0.0556-0.0556 (  1687 PWs)   bands (ev):

    -5.8709   5.3239   5.6962   5.6962   8.3188   8.3997   8.3997   8.9901

     occupation numbers 
     1.0000   1.0000   1.0000   1.0000   0.0000   0.0000   0.0000   0.0000

          k =-0.1111 0.1111-0.1111 (  1705 PWs)   bands (ev):

    -5.7544   4.4211   5.5332   5.5332   8.1776   8.6402   8.6402   9.8589

     occupation numbers 
     1.0000   1.0000   1.0000   1.0000   0.0000   0.0000   0.0000   0.0000

          k =-0.1667 0.1667-0.1667 (  1687 PWs)   bands (ev):

    -5.5622   3.4085   5.3281   5.3281   7.9667   8.9292   8.9292  10.8505

     occupation numbers 
     1.0000   1.0000   1.0000   1.0000   0.0000   0.0000   0.0000   0.0000

          k =-0.2222 0.2222-0.2222 (  1678 PWs)   bands (ev):

    -5.2979   2.3979   5.1229   5.1229   7.7442   9.1610   9.1610  11.8455

     occupation numbers 
     1.0000   1.0000   1.0000   1.0000   0.0000   0.0000   0.0000   0.0000

          k =-0.2778 0.2778-0.2778 (  1673 PWs)   bands (ev):

    -4.9686   1.4343   4.9408   4.9408   7.5404   9.2665   9.2665  12.7812

     occupation numbers 
     1.0000   1.0000   1.0000   1.0000   0.0000   0.0000   0.0000   0.0000

          k =-0.3333 0.3333-0.3333 (  1670 PWs)   bands (ev):

    -4.5880   0.5493   4.7934   4.7934   7.3721   9.2578   9.2578  13.4400

     occupation numbers 
     1.0000   1.0000   1.0000   1.0000   0.0000   0.0000   0.0000   0.0000

          k =-0.3889 0.3889-0.3889 (  1679 PWs)   bands (ev):

    -4.1870  -0.2171   4.6860   4.6860   7.2478   9.1973   9.1973  13.5389

     occupation numbers 
     1.0000   1.0000   1.0000   1.0000   0.0000   0.0000   0.0000   0.0000

          k =-0.4444 0.4444-0.4444 (  1685 PWs)   bands (ev):

    -3.8380  -0.7872   4.6210   4.6210   7.1720   9.1406   9.1406  13.4702

     occupation numbers 
[...]

     occupation numbers 
     1.0000   1.0000   1.0000   1.0000   0.0000   0.0000   0.0000   0.0000

          k =-0.1111 0.5556 0.0000 (  1687 PWs)   bands (ev):

    -4.5818   1.6066   3.5555   3.8385   7.0843   8.6944  11.3199  11.8152

     occupation numbers 
     1.0000   1.0000   1.0000   1.0000   0.0000   0.0000   0.0000   0.0000

          k =-0.1667 0.6111-0.0556 (  1683 PWs)   bands (ev):

    -4.2544   0.9954   3.1869   3.6810   7.2892   8.6710  11.2312  12.1291

     occupation numbers 
     1.0000   1.0000   1.0000   1.0000   0.0000   0.0000   0.0000   0.0000

          k =-0.2222 0.6667-0.1111 (  1678 PWs)   bands (ev):

    -3.8750   0.3570   2.8174   3.5671   7.4465   9.0443  11.0611  12.1937

     occupation numbers 
     1.0000   1.0000   1.0000   1.0000   0.0000   0.0000   0.0000   0.0000

          k = 0.7222-0.2778 0.8333 (  1681 PWs)   bands (ev):

    -3.4719  -0.2483   2.4810   3.5298   7.5188   9.7592  10.8770  12.1256

     occupation numbers 
     1.0000   1.0000   1.0000   1.0000   0.0000   0.0000   0.0000   0.0000

          k = 0.6667-0.2222 0.7778 (  1688 PWs)   bands (ev):

    -3.1175  -0.7262   2.2071   3.5690   7.5982  10.5623  10.8186  12.0167

     occupation numbers 
     1.0000   1.0000   1.0000   1.0000   0.0000   0.0000   0.0000   0.0000

          k = 0.6111-0.1667 0.7222 (  1689 PWs)   bands (ev):

    -2.9744  -0.9030   2.0149   3.6783   7.7280  10.5191  11.7391  11.9179

     occupation numbers 
     1.0000   1.0000   1.0000   1.0000   0.0000   0.0000   0.0000   0.0000

          k = 0.5556-0.1111 0.6667 (  1689 PWs)   bands (ev):

    -3.1568  -0.6672   1.9238   3.8495   7.9166  10.3975  11.7708  12.4761

     occupation numbers 
     1.0000   1.0000   1.0000   1.0000   0.0000   0.0000   0.0000   0.0000

          k = 0.5000-0.0556 0.6111 (  1682 PWs)   bands (ev):

    -3.5217  -0.1855   1.9645   4.0710   8.1556  10.2462  11.4789  11.7869

     occupation numbers 
     1.0000   1.0000   1.0000   1.0000   0.0000   0.0000   0.0000   0.0000

          k = 0.4444 0.0000 0.5556 (  1683 PWs)   bands (ev):

    -3.9212   0.3400   2.1916   4.3252   8.4189   9.9119  11.0570  11.3447

     occupation numbers 
     1.0000   1.0000   1.0000   1.0000   0.0000   0.0000   0.0000   0.0000

          k =-0.1111 0.6667-0.0000 (  1684 PWs)   bands (ev):

    -4.0346   0.7079   3.2434   3.4416   6.8523   8.0226  12.2162  12.8146

     occupation numbers 
     1.0000   1.0000   1.0000   1.0000   0.0000   0.0000   0.0000   0.0000

          k =-0.1667 0.7222-0.0556 (  1685 PWs)   bands (ev):

    -3.6705   0.1726   2.8654   3.3131   7.0784   8.1138  12.1000  13.1216

     occupation numbers 
     1.0000   1.0000   1.0000   1.0000   0.0000   0.0000   0.0000   0.0000

          k = 0.7778-0.2222 0.8889 (  1680 PWs)   bands (ev):

    -3.2695  -0.3553   2.4350   3.2720   7.2128   8.6515  11.9194  13.1539

     occupation numbers 
     1.0000   1.0000   1.0000   1.0000   0.0000   0.0000   0.0000   0.0000

          k = 0.7222-0.1667 0.8333 (  1681 PWs)   bands (ev):

    -2.8843  -0.8142   2.0509   3.3087   7.3023   9.4902  11.7307  13.0615

     occupation numbers 
     1.0000   1.0000   1.0000   1.0000   0.0000   0.0000   0.0000   0.0000

          k = 0.6667-0.1111 0.7778 (  1685 PWs)   bands (ev):

    -2.6611  -1.0578   1.7677   3.4159   7.4321  10.4776  11.5663  12.9022

     occupation numbers 
     1.0000   1.0000   1.0000   1.0000   0.0000   0.0000   0.0000   0.0000

          k = 0.6111-0.0556 0.7222 (  1682 PWs)   bands (ev):

    -2.7818  -0.9181   1.6252   3.5863   7.6234  11.2329  11.7215  12.4455

     occupation numbers 
     1.0000   1.0000   1.0000   1.0000   0.0000   0.0000   0.0000   0.0000

          k = 0.5556 0.0000 0.6667 (  1683 PWs)   bands (ev):

    -3.1274  -0.5512   1.6725   3.8100   7.8719  10.9464  11.7805  12.3706

     occupation numbers 
     1.0000   1.0000   1.0000   1.0000   0.0000   0.0000   0.0000   0.0000

          k =-0.1111 0.7778 0.0000 (  1684 PWs)   bands (ev):

    -3.4006  -0.1903   3.0236   3.1488   6.7237   7.4796  13.1500  13.8316

     occupation numbers 
     1.0000   1.0000   1.0000   1.0000   0.0000   0.0000   0.0000   0.0000

          k = 0.8333-0.1667 0.9444 (  1682 PWs)   bands (ev):

    -3.0073  -0.6613   2.6407   3.0740   6.9535   7.7130  13.0123  14.1233

     occupation numbers 
     1.0000   1.0000   1.0000   1.0000   0.0000   0.0000   0.0000   0.0000

          k = 0.7778-0.1111 0.8889 (  1682 PWs)   bands (ev):

    -2.6049  -1.0891   2.1928   3.1016   7.0654   8.4161  12.8233  14.0858

     occupation numbers 
     1.0000   1.0000   1.0000   1.0000   0.0000   0.0000   0.0000   0.0000

          k = 0.7222-0.0556 0.8333 (  1688 PWs)   bands (ev):

    -2.3280  -1.3535   1.8202   3.2011   7.1892   9.3574  12.6157  13.5899

     occupation numbers 
     1.0000   1.0000   1.0000   1.0000   0.0000   0.0000   0.0000   0.0000

          k = 0.6667 0.0000 0.7778 (  1684 PWs)   bands (ev):

    -2.4395  -1.2259   1.6060   3.3655   7.3749  10.4232  12.2505  12.7726

     occupation numbers 
     1.0000   1.0000   1.0000   1.0000   0.0000   0.0000   0.0000   0.0000

          k = 0.8889-0.1111 1.0000 (  1684 PWs)   bands (ev):

    -2.6875  -1.0677   2.9012   2.9618   6.7121   7.0819  14.1086  14.8155

     occupation numbers 
     1.0000   1.0000   1.0000   1.0000   0.0000   0.0000   0.0000   0.0000

          k = 0.8333-0.0556 0.9444 (  1685 PWs)   bands (ev):

    -2.2779  -1.4803   2.5255   2.9570   6.9039   7.4973  13.9539  14.7656

     occupation numbers 
     1.0000   1.0000   1.0000   1.0000   0.0000   0.0000   0.0000   0.0000

          k = 0.7778 0.0000 0.8889 (  1684 PWs)   bands (ev):

    -2.0401  -1.6785   2.1109   3.0458   7.0151   8.3381  13.6305  13.9175

     occupation numbers 
     1.0000   1.0000   1.0000   1.0000   0.0000   0.0000   0.0000   0.0000

          k =-0.1111-1.0000 0.0000 (  1690 PWs)   bands (ev):

    -1.9055  -1.9055   2.8798   2.8798   6.8284   6.8284  15.0063  15.0063

     occupation numbers 
     1.0000   1.0000   1.0000   1.0000   0.0000   0.0000   0.0000   0.0000

          k =-0.2222 0.4444 0.0000 (  1681 PWs)   bands (ev):

    -4.8920   1.9955   3.4956   4.6331   8.1302   9.4078  10.1737  10.6776

     occupation numbers 
     1.0000   1.0000   1.0000   1.0000   0.0000   0.0000   0.0000   0.0000

          k =-0.2778 0.5000-0.0556 (  1686 PWs)   bands (ev):

    -4.5654   1.3026   3.1233   4.4334   8.3763   9.3996  10.1246  10.9949

     occupation numbers 
     1.0000   1.0000   1.0000   1.0000   0.0000   0.0000   0.0000   0.0000

          k =-0.3333 0.5556-0.1111 (  1686 PWs)   bands (ev):

    -4.1869   0.5640   2.8974   4.2183   8.4945   9.2930  10.4861  11.1319

     occupation numbers 
     1.0000   1.0000   1.0000   1.0000   0.0000   0.0000   0.0000   0.0000

          k = 0.6111-0.3889 0.8333 (  1685 PWs)   bands (ev):

    -3.7852  -0.1257   2.7662   4.0348   8.5294   9.1151  11.0171  11.3390

     occupation numbers 
     1.0000   1.0000   1.0000   1.0000   0.0000   0.0000   0.0000   0.0000

          k = 0.5556-0.3333 0.7778 (  1686 PWs)   bands (ev):

    -3.4305  -0.6628   2.6988   3.9126   8.5547   8.9618  11.0594  12.1859

     occupation numbers 
     1.0000   1.0000   1.0000   1.0000   0.0000   0.0000   0.0000   0.0000

          k = 0.5000-0.2778 0.7222 (  1686 PWs)   bands (ev):

    -3.2733  -0.8821   2.6782   3.8697   8.5717   8.8969  11.0530  13.1390

     occupation numbers 
     1.0000   1.0000   1.0000   1.0000   0.0000   0.0000   0.0000   0.0000

          k =-0.2222 0.5556 0.0000 (  1679 PWs)   bands (ev):

    -4.4458   1.2564   3.1072   4.0202   7.8291   9.2133  10.3286  11.6997

     occupation numbers 
     1.0000   1.0000   1.0000   1.0000   0.0000   0.0000   0.0000   0.0000

          k =-0.2778 0.6111-0.0556 (  1680 PWs)   bands (ev):

    -4.0834   0.6422   2.7527   3.8149   8.0998   9.4248  10.1175  12.0170

     occupation numbers 
     1.0000   1.0000   1.0000   1.0000   0.0000   0.0000   0.0000   0.0000

          k = 0.6667-0.3333 0.8889 (  1678 PWs)   bands (ev):

    -3.6845   0.0120   2.5043   3.6372   8.2311   9.8774  10.0418  12.1077

     occupation numbers 
     1.0000   1.0000   1.0000   1.0000   0.0000   0.0000   0.0000   0.0000

          k = 0.6111-0.2778 0.8333 (  1679 PWs)   bands (ev):

    -3.3000  -0.5401   2.3306   3.5328   8.3128   9.6675  10.8997  12.0929

     occupation numbers 
     1.0000   1.0000   1.0000   1.0000   0.0000   0.0000   0.0000   0.0000

          k = 0.5556-0.2222 0.7778 (  1683 PWs)   bands (ev):

    -3.0554  -0.8628   2.2154   3.5203   8.4228   9.4880  11.8903  12.0596

     occupation numbers 
     1.0000   1.0000   1.0000   1.0000   0.0000   0.0000   0.0000   0.0000

          k = 0.5000-0.1667 0.7222 (  1686 PWs)   bands (ev):

    -3.1190  -0.7787   2.1616   3.5990   8.5828   9.3516  11.9353  12.2215

     occupation numbers 
     1.0000   1.0000   1.0000   1.0000   0.0000   0.0000   0.0000   0.0000

          k = 0.4444-0.1111 0.6667 (  1685 PWs)   bands (ev):

    -3.4370  -0.3478   2.1863   3.7563   8.7898   9.2497  11.1636  12.0030

     occupation numbers 
     1.0000   1.0000   1.0000   1.0000   0.0000   0.0000   0.0000   0.0000

          k = 0.3889-0.0556 0.6111 (  1689 PWs)   bands (ev):

    -3.8353   0.2296   2.3222   3.9717   9.0099   9.1393  10.4176  11.8680

     occupation numbers 
     1.0000   1.0000   1.0000   1.0000   0.0000   0.0000   0.0000   0.0000

          k = 0.3333 0.0000 0.5556 (  1681 PWs)   bands (ev):

    -4.2233   0.8101   2.6204   4.2142   8.8066   9.2636  10.0628  11.5314

     occupation numbers 
     1.0000   1.0000   1.0000   1.0000   0.0000   0.0000   0.0000   0.0000

          k =-0.2222 0.6667 0.0000 (  1683 PWs)   bands (ev):

    -3.9107   0.4945   2.8110   3.4723   7.6023   8.6103  11.0734  12.7523

     occupation numbers 
     1.0000   1.0000   1.0000   1.0000   0.0000   0.0000   0.0000   0.0000

          k = 0.7222-0.2778 0.9444 (  1684 PWs)   bands (ev):

    -3.5208  -0.0378   2.4698   3.2819   7.8800   8.9391  10.8558  13.0743

     occupation numbers 
     1.0000   1.0000   1.0000   1.0000   0.0000   0.0000   0.0000   0.0000

          k = 0.6667-0.2222 0.8889 (  1679 PWs)   bands (ev):

    -3.1208  -0.5468   2.1732   3.1830   8.0037   9.6716  10.6446  13.1387

     occupation numbers 
     1.0000   1.0000   1.0000   1.0000   0.0000   0.0000   0.0000   0.0000

          k = 0.6111-0.1667 0.8333 (  1683 PWs)   bands (ev):

    -2.8082  -0.9173   1.9426   3.1890   8.1193  10.3240  10.7477  13.0385

     occupation numbers 
     1.0000   1.0000   1.0000   1.0000   0.0000   0.0000   0.0000   0.0000

          k = 0.5556-0.1111 0.7778 (  1687 PWs)   bands (ev):

    -2.7776  -0.9481   1.8047   3.2892   8.2834  10.2181  11.7250  12.2168

     occupation numbers 
     1.0000   1.0000   1.0000   1.0000   0.0000   0.0000   0.0000   0.0000

          k = 0.5000-0.0556 0.7222 (  1685 PWs)   bands (ev):

    -3.0539  -0.6260   1.7920   3.4677   8.5026  10.0603  11.1973  12.8546

     occupation numbers 
     1.0000   1.0000   1.0000   1.0000   0.0000   0.0000   0.0000   0.0000

          k = 0.4444 0.0000 0.6667 (  1675 PWs)   bands (ev):

    -3.4438  -0.1812   1.9499   3.7049   8.7655   9.7311  10.5637  12.5342

     occupation numbers 
     1.0000   1.0000   1.0000   1.0000   0.0000   0.0000   0.0000   0.0000

          k = 0.7778-0.2222 1.0000 (  1686 PWs)   bands (ev):

    -3.2943  -0.2905   2.6179   3.0396   7.4695   8.1162  11.9080  13.8122

     occupation numbers 
     1.0000   1.0000   1.0000   1.0000   0.0000   0.0000   0.0000   0.0000

          k = 0.7222-0.1667 0.9444 (  1677 PWs)   bands (ev):

    -2.8899  -0.7444   2.2808   2.9009   7.7328   8.5996  11.6858  14.0816

     occupation numbers 
     1.0000   1.0000   1.0000   1.0000   0.0000   0.0000   0.0000   0.0000

          k = 0.6667-0.1111 0.8889 (  1682 PWs)   bands (ev):

    -2.5290  -1.1196   1.9406   2.9116   7.8577   9.4699  11.4763  13.3829

     occupation numbers 
     1.0000   1.0000   1.0000   1.0000   0.0000   0.0000   0.0000   0.0000

          k = 0.6111-0.0556 0.8333 (  1681 PWs)   bands (ev):

    -2.4223  -1.2179   1.7039   3.0237   8.0165  10.4659  11.3163  12.2939

     occupation numbers 
     1.0000   1.0000   1.0000   1.0000   0.0000   0.0000   0.0000   0.0000

          k = 0.5556 0.0000 0.7778 (  1683 PWs)   bands (ev):

    -2.6748  -0.9624   1.6365   3.2150   8.2339  10.8150  11.4323  11.7795

     occupation numbers 
     1.0000   1.0000   1.0000   1.0000   0.0000   0.0000   0.0000   0.0000

          k = 0.7778-0.1111 1.0000 (  1676 PWs)   bands (ev):

    -2.6073  -1.0843   2.5365   2.7402   7.4444   7.7594  12.8067  14.5711

     occupation numbers 
     1.0000   1.0000   1.0000   1.0000   0.0000   0.0000   0.0000   0.0000

          k = 0.7222-0.0556 0.9444 (  1682 PWs)   bands (ev):

    -2.2148  -1.4585   2.1871   2.7044   7.6604   8.4266  12.5881  13.5600

     occupation numbers 
     1.0000   1.0000   1.0000   1.0000   0.0000   0.0000   0.0000   0.0000

          k = 0.6667-0.0000 0.8889 (  1688 PWs)   bands (ev):

    -2.1151  -1.5250   1.8560   2.8235   7.8077   9.4029  12.2778  12.5320

     occupation numbers 
     1.0000   1.0000   1.0000   1.0000   0.0000   0.0000   0.0000   0.0000

          k =-0.2222-1.0000 0.0000 (  1686 PWs)   bands (ev):

    -1.8643  -1.8643   2.5747   2.5747   7.5379   7.5379  13.7558  13.7558

     occupation numbers 
     1.0000   1.0000   1.0000   1.0000   0.0000   0.0000   0.0000   0.0000

          k = 0.6667-0.3333 1.0000 (  1678 PWs)   bands (ev):

    -3.7103   0.1814   2.3463   3.5653   8.5959   9.4807   9.8792  12.6551

     occupation numbers 
     1.0000   1.0000   1.0000   1.0000   0.0000   0.0000   0.0000   0.0000

          k = 0.6111-0.2778 0.9444 (  1685 PWs)   bands (ev):

    -3.3093  -0.3190   2.0899   3.3363   8.8992   9.5931  10.0235  13.0027

     occupation numbers 
     1.0000   1.0000   1.0000   1.0000   0.0000   0.0000   0.0000   0.0000

          k = 0.5556-0.2222 0.8889 (  1683 PWs)   bands (ev):

    -2.9445  -0.7634   1.9576   3.1797   9.0346   9.3776  10.8874  13.0584

     occupation numbers 
     1.0000   1.0000   1.0000   1.0000   0.0000   0.0000   0.0000   0.0000

          k = 0.5000-0.1667 0.8333 (  1688 PWs)   bands (ev):

    -2.7754  -0.9626   1.9178   3.1243   9.1382   9.2319  11.7722  12.1102

     occupation numbers 
     1.0000   1.0000   1.0000   1.0000   0.0000   0.0000   0.0000   0.0000

          k = 0.6667-0.2222 1.0000 (  1684 PWs)   bands (ev):

    -3.1265  -0.4639   2.1894   2.9926   8.4678   9.0297  10.6128  13.7758

     occupation numbers 
     1.0000   1.0000   1.0000   1.0000   0.0000   0.0000   0.0000   0.0000

          k = 0.6111-0.1667 0.9444 (  1682 PWs)   bands (ev):

    -2.7343  -0.8792   1.9733   2.8049   8.7508   9.6536  10.4044  13.1952

     occupation numbers 
     1.0000   1.0000   1.0000   1.0000   0.0000   0.0000   0.0000   0.0000

          k = 0.5556-0.1111 0.8889 (  1684 PWs)   bands (ev):

    -2.4740  -1.1479   1.8228   2.7623   8.8995  10.0760  10.7504  12.0523

     occupation numbers 
     1.0000   1.0000   1.0000   1.0000   0.0000   0.0000   0.0000   0.0000

          k = 0.5000-0.0556 0.8333 (  1687 PWs)   bands (ev):

    -2.5672  -1.0487   1.7656   2.8564   9.0850   9.9326  10.9364  11.8812

     occupation numbers 
     1.0000   1.0000   1.0000   1.0000   0.0000   0.0000   0.0000   0.0000

          k = 0.4444 0.0000 0.7778 (  1684 PWs)   bands (ev):

    -2.9126  -0.6979   1.8432   3.0592   9.3184   9.6151  10.1980  13.0444

     occupation numbers 
     1.0000   1.0000   1.0000   1.0000   0.0000   0.0000   0.0000   0.0000

          k = 0.6667-0.1111 1.0000 (  1673 PWs)   bands (ev):

    -2.4877  -1.1326   2.1631   2.5573   8.4370   8.7095  11.4458  13.3561

     occupation numbers 
     1.0000   1.0000   1.0000   1.0000   0.0000   0.0000   0.0000   0.0000

          k = 0.6111-0.0556 0.9444 (  1681 PWs)   bands (ev):

    -2.1536  -1.4426   1.9587   2.4756   8.6748   9.5207  11.2349  12.1816

     occupation numbers 
     1.0000   1.0000   1.0000   1.0000   0.0000   0.0000   0.0000   0.0000

          k = 0.5556 0.0000 0.8889 (  1677 PWs)   bands (ev):

    -2.2189  -1.3659   1.7793   2.6090   8.8535  10.4499  11.0910  11.1793

     occupation numbers 
     1.0000   1.0000   1.0000   1.0000   0.0000   0.0000   0.0000   0.0000

          k =-0.3333-1.0000 0.0000 (  1678 PWs)   bands (ev):

    -1.8147  -1.8147   2.2816   2.2816   8.5145   8.5145  12.3662  12.3662

     occupation numbers 
     1.0000   1.0000   1.0000   1.0000   0.0000   0.0000   0.0000   0.0000

          k = 0.5556-0.1111 1.0000 (  1685 PWs)   bands (ev):

    -2.3496  -1.2277   1.8908   2.5065   9.5812   9.7204  10.2568  11.9969

     occupation numbers 
     1.0000   1.0000   1.0000   1.0000   0.0000   0.0000   0.0000   0.0000

          k = 0.5000-0.0556 0.9444 (  1678 PWs)   bands (ev):

    -2.1276  -1.4376   1.8802   2.3858   9.7041   9.9631  10.7019  11.0346

     occupation numbers 
     1.0000   1.0000   1.0000   1.0000   0.0000   0.0000   0.0000   0.0000

          k =-0.4444-1.0000 0.0000 (  1678 PWs)   bands (ev):

    -1.7807  -1.7807   2.1100   2.1100   9.6345   9.6345  11.0392  11.0392

     occupation numbers 
     1.0000   1.0000   1.0000   1.0000   0.0000   0.0000   0.0000   0.0000

     the Fermi energy is     6.1320 ev
     (compare with:     5.7610 eV, computed in scf)

     Writing all to output data dir ./tmp/Si.save/ :
     XML data file, pseudopotentials, collected wavefunctions

     init_run     :      0.29s CPU      0.30s WALL (       1 calls)
     electrons    :     30.41s CPU     31.92s WALL (       1 calls)

     Called by init_run:
     wfcinit      :      0.00s CPU      0.00s WALL (       1 calls)
     wfcinit:atom :      0.01s CPU      0.01s WALL (     195 calls)
     wfcinit:wfcr :      1.00s CPU      0.99s WALL (     195 calls)
     potinit      :      0.01s CPU      0.01s WALL (       1 calls)
     hinit0       :      0.24s CPU      0.22s WALL (       1 calls)

     Called by electrons:
     c_bands      :     30.34s CPU     31.85s WALL (       1 calls)
     v_of_rho     :      0.01s CPU      0.01s WALL (       1 calls)
     v_h          :      0.00s CPU      0.00s WALL (       1 calls)
     v_xc         :      0.01s CPU      0.01s WALL (       1 calls)
     newd         :      0.02s CPU      0.05s WALL (       1 calls)

     Called by c_bands:
     init_us_2    :      0.04s CPU      0.04s WALL (     195 calls)
     cegterg      :     29.02s CPU     30.53s WALL (     423 calls)

     Called by sum_band:

     Called by *egterg:
     cdiaghg      :      1.08s CPU      1.06s WALL (    6822 calls)
     cegterg:over :      2.43s CPU      2.38s WALL (    6627 calls)
     cegterg:upda :      0.63s CPU      0.61s WALL (    6627 calls)
     cegterg:last :      1.71s CPU      1.65s WALL (    4603 calls)
     h_psi        :     21.21s CPU     22.97s WALL (    7245 calls)
     s_psi        :      1.44s CPU      1.40s WALL (    7245 calls)
     g_psi        :      0.16s CPU      0.15s WALL (    6627 calls)

     Called by h_psi:
     h_psi:calbec :      2.60s CPU      2.53s WALL (    7245 calls)
     vloc_psi     :     17.00s CPU     18.88s WALL (    7245 calls)
     add_vuspsi   :      1.49s CPU      1.46s WALL (    7245 calls)

     General routines
     calbec       :      2.57s CPU      2.51s WALL (    7245 calls)
     fft          :      0.17s CPU      0.16s WALL (      12 calls)
     fftw         :     15.33s CPU     14.98s WALL (   78036 calls)
     davcio       :      0.06s CPU      0.07s WALL (     390 calls)

     Parallel routines

     PWSCF        :     32.31s CPU     34.04s WALL


   This run was terminated on:   5:34:23  10Jul2025            

=------------------------------------------------------------------------------=
   JOB DONE.
=------------------------------------------------------------------------------=
