
     Program PWSCF v.7.4.1 starts on 12Jul2025 at 16: 5: 4 

     This program is part of the open-source Quantum ESPRESSO suite
     for quantum simulation of materials; please cite
         "P. Giannozzi et al., J. Phys.:Condens. Matter 21 395502 (2009);
         "P. Giannozzi et al., J. Phys.:Condens. Matter 29 465901 (2017);
         "P. Giannozzi et al., J. Chem. Phys. 152 154105 (2020);
          URL http://www.quantum-espresso.org", 
     in publications or presentations arising from this work. More details at
     http://www.quantum-espresso.org/quote

     Parallel version (MPI), running on     4 processors

     MPI processes distributed on     1 nodes
     325 MiB available memory on the printing compute node when the environment starts

     Waiting for input...
     Reading input from standard input

     Current dimensions of program PWSCF are:
     Max number of different atomic species (ntypx) = 10
     Max number of k-points (npk) =  40000
     Max angular momentum in pseudopotentials (lmaxx) =  4
     file O.pbesol-n-kjpaw_psl.0.1.UPF: wavefunction(s)  2P renormalized
     Message from routine volume:
     axis vectors are left-handed
     Message from routine setup:
     using ibrav=0 with symmetry is DISCOURAGED, use correct ibrav instead

     R & G space division:  proc/nbgrp/npool/nimage =       4
     Subspace diagonalization in iterative solution of the eigenvalue problem:
     a serial algorithm will be used


     Parallelization info
     --------------------
     sticks:   dense  smooth     PW     G-vecs:    dense   smooth      PW
     Min         291     146     48                 4642     1635     317
     Max         292     147     49                 4643     1636     318
     Sum        1167     587    195                18569     6541    1269

     Using Slab Decomposition



     bravais-lattice index     =            0
     lattice parameter (alat)  =       8.0000  a.u.
     unit-cell volume          =     235.7543 (a.u.)^3
     number of atoms/cell      =            4
     number of atomic types    =            3
     number of electrons       =        46.00
     number of Kohn-Sham states=           28
     kinetic-energy cutoff     =      35.0000  Ry
     charge density cutoff     =     280.0000  Ry
     scf convergence threshold =      1.0E-08
     mixing beta               =       0.7000
     number of iterations used =            8  plain     mixing
     Exchange-correlation= SLA  PW   PSX  PSC
                           (   1   4  10   8   0   0   0)

     celldm(1)=   8.000000  celldm(2)=   0.000000  celldm(3)=   0.000000
     celldm(4)=   0.000000  celldm(5)=   0.000000  celldm(6)=   0.000000

     crystal axes: (cart. coord. in units of alat)
               a(1) = (   0.570726   0.570726   1.031099 )  
               a(2) = (   0.570726   1.031099   0.570726 )  
               a(3) = (   1.031099   0.570726   0.570726 )  

     reciprocal axes: (cart. coord. in units 2 pi/alat)
               b(1) = ( -0.570621 -0.570621  1.601531 )  
               b(2) = ( -0.570621  1.601531 -0.570621 )  
               b(3) = (  1.601531 -0.570621 -0.570621 )  


     PseudoPot. # 1 for Co read from file:
     ./co_pbesol_v1.2.uspp.F.UPF
     MD5 check sum: 3b4cd4e7cc7df4da9fdede0fd33e2193
     Pseudo is Ultrasoft + core correction, Zval = 17.0
     Generated by new atomic code, or converted to UPF format
     Using radial grid of  863 points,  6 beta functions with: 
                l(1) =   0
                l(2) =   0
                l(3) =   1
                l(4) =   1
                l(5) =   2
                l(6) =   2
     Q(r) pseudized with  8 coefficients,  rinner =    1.200   1.200   1.200
                                                       1.200   1.200

     PseudoPot. # 2 for Co read from file:
     ./co_pbesol_v1.2.uspp.F.UPF
     MD5 check sum: 3b4cd4e7cc7df4da9fdede0fd33e2193
     Pseudo is Ultrasoft + core correction, Zval = 17.0
     Generated by new atomic code, or converted to UPF format
     Using radial grid of  863 points,  6 beta functions with: 
                l(1) =   0
                l(2) =   0
                l(3) =   1
                l(4) =   1
                l(5) =   2
                l(6) =   2
     Q(r) pseudized with  8 coefficients,  rinner =    1.200   1.200   1.200
                                                       1.200   1.200

     PseudoPot. # 3 for O  read from file:
     ./O.pbesol-n-kjpaw_psl.0.1.UPF
     MD5 check sum: 126339daddaa87477ab44acfa0b5aa00
     Pseudo is Projector augmented-wave + core cor, Zval =  6.0
     Generated using "atomic" code by A. Dal Corso  v.6.0 svn rev. 13079
     Shape of augmentation charge: BESSEL
     Using radial grid of 1095 points,  4 beta functions with: 
                l(1) =   0
                l(2) =   0
                l(3) =   1
                l(4) =   1
     Q(r) pseudized with 0 coefficients 


     atomic species   valence    mass     pseudopotential
     Co1              17.00    58.93319     Co( 1.00)
     Co2              17.00    58.93319     Co( 1.00)
     O                 6.00    15.99900     O ( 1.00)

     Starting magnetic structure 
     atomic species   magnetization
     Co1             0.500
     Co2            -0.500
     O               0.000

     12 Sym. Ops., with inversion, found


                                    s                        frac. trans.

      isym =  1     identity                                     

 cryst.   s( 1) = (     1          0          0      )
                  (     0          1          0      )
                  (     0          0          1      )

 cart.    s( 1) = (  1.0000000  0.0000000  0.0000000 )
                  (  0.0000000  1.0000000  0.0000000 )
                  (  0.0000000  0.0000000  1.0000000 )


      isym =  2     180 deg rotation - cart. axis [1,-1,0]       

 cryst.   s( 2) = (    -1          0          0      )
                  (     0          0         -1      )
                  (     0         -1          0      )

 cart.    s( 2) = ( -0.0000000 -1.0000000 -0.0000000 )
                  ( -1.0000000 -0.0000000 -0.0000000 )
                  ( -0.0000000 -0.0000000 -1.0000000 )


      isym =  3     180 deg rotation - cart. axis [-1,0,1]       

 cryst.   s( 3) = (     0          0         -1      )
                  (     0         -1          0      )
                  (    -1          0          0      )

 cart.    s( 3) = ( -0.0000000 -0.0000000 -1.0000000 )
                  ( -0.0000000 -1.0000000 -0.0000000 )
                  ( -1.0000000 -0.0000000 -0.0000000 )


      isym =  4     180 deg rotation - cart. axis [0,1,-1]       

 cryst.   s( 4) = (     0         -1          0      )
                  (    -1          0          0      )
                  (     0          0         -1      )

 cart.    s( 4) = ( -1.0000000 -0.0000000 -0.0000000 )
                  ( -0.0000000 -0.0000000 -1.0000000 )
                  ( -0.0000000 -1.0000000 -0.0000000 )


      isym =  5     120 deg rotation - cart. axis [-1,-1,-1]     

 cryst.   s( 5) = (     0          1          0      )
                  (     0          0          1      )
                  (     1          0          0      )

 cart.    s( 5) = (  0.0000000  1.0000000  0.0000000 )
                  (  0.0000000  0.0000000  1.0000000 )
                  (  1.0000000  0.0000000  0.0000000 )


      isym =  6     120 deg rotation - cart. axis [1,1,1]        

 cryst.   s( 6) = (     0          0          1      )
                  (     1          0          0      )
                  (     0          1          0      )

 cart.    s( 6) = (  0.0000000  0.0000000  1.0000000 )
                  (  1.0000000  0.0000000  0.0000000 )
                  (  0.0000000  1.0000000  0.0000000 )


      isym =  7     inversion                                    

 cryst.   s( 7) = (    -1          0          0      )
                  (     0         -1          0      )
                  (     0          0         -1      )

 cart.    s( 7) = ( -1.0000000 -0.0000000 -0.0000000 )
                  ( -0.0000000 -1.0000000 -0.0000000 )
                  ( -0.0000000 -0.0000000 -1.0000000 )


      isym =  8     inv. 180 deg rotation - cart. axis [1,-1,0]  

 cryst.   s( 8) = (     1          0          0      )
                  (     0          0          1      )
                  (     0          1          0      )

 cart.    s( 8) = (  0.0000000  1.0000000  0.0000000 )
                  (  1.0000000  0.0000000  0.0000000 )
                  (  0.0000000  0.0000000  1.0000000 )


      isym =  9     inv. 180 deg rotation - cart. axis [-1,0,1]  

 cryst.   s( 9) = (     0          0          1      )
                  (     0          1          0      )
                  (     1          0          0      )

 cart.    s( 9) = (  0.0000000  0.0000000  1.0000000 )
                  (  0.0000000  1.0000000  0.0000000 )
                  (  1.0000000  0.0000000  0.0000000 )


      isym = 10     inv. 180 deg rotation - cart. axis [0,1,-1]  

 cryst.   s(10) = (     0          1          0      )
                  (     1          0          0      )
                  (     0          0          1      )

 cart.    s(10) = (  1.0000000  0.0000000  0.0000000 )
                  (  0.0000000  0.0000000  1.0000000 )
                  (  0.0000000  1.0000000  0.0000000 )


      isym = 11     inv. 120 deg rotation - cart. axis [-1,-1,-1]

 cryst.   s(11) = (     0         -1          0      )
                  (     0          0         -1      )
                  (    -1          0          0      )

 cart.    s(11) = ( -0.0000000 -1.0000000 -0.0000000 )
                  ( -0.0000000 -0.0000000 -1.0000000 )
                  ( -1.0000000 -0.0000000 -0.0000000 )


      isym = 12     inv. 120 deg rotation - cart. axis [1,1,1]   

 cryst.   s(12) = (     0          0         -1      )
                  (    -1          0          0      )
                  (     0         -1          0      )

 cart.    s(12) = ( -0.0000000 -0.0000000 -1.0000000 )
                  ( -1.0000000 -0.0000000 -0.0000000 )
                  ( -0.0000000 -1.0000000 -0.0000000 )


   Cartesian axes

     site n.     atom                  positions (alat units)
         1        Co1    tau(   1) = (   0.0000000   0.0000000   0.0000000  )
         2        Co2    tau(   2) = (   1.0862757   1.0862757   1.0862757  )
         3        O      tau(   3) = (   0.5431378   0.5431378   0.5431378  )
         4        O      tau(   4) = (   1.6294135   1.6294135   1.6294135  )

   Crystallographic axes

     site n.     atom                  positions (cryst. coord.)
         1        Co1    tau(   1) = (  0.0000000  0.0000000  0.0000000  )
         2        Co2    tau(   2) = (  0.5000000  0.5000000  0.5000000  )
         3        O      tau(   3) = (  0.2500000  0.2500000  0.2500000  )
         4        O      tau(   4) = (  0.7500000  0.7500000  0.7500000  )

     number of k points=     6  Marzari-Vanderbilt smearing, width (Ry)=  0.0200
                       cart. coord. in units 2pi/alat
        k(    1) = (   0.0000000   0.0000000   0.0000000), wk =   0.0370370
        k(    2) = (   0.5338435  -0.1902071  -0.1902071), wk =   0.2222222
        k(    3) = (   0.3436365   0.3436365  -0.3804141), wk =   0.2222222
        k(    4) = (  -0.7240506   0.7240506   0.0000000), wk =   0.2222222
        k(    5) = (   0.1534294   0.1534294   0.1534294), wk =   0.0740741
        k(    6) = (  -0.9142576   0.5338435   0.5338435), wk =   0.2222222

                       cryst. coord.
        k(    1) = (   0.0000000   0.0000000   0.0000000), wk =   0.0370370
        k(    2) = (   0.0000000   0.0000000   0.3333333), wk =   0.2222222
        k(    3) = (   0.0000000   0.3333333   0.3333333), wk =   0.2222222
        k(    4) = (  -0.0000000   0.3333333  -0.3333333), wk =   0.2222222
        k(    5) = (   0.3333333   0.3333333   0.3333333), wk =   0.0740741
        k(    6) = (   0.3333333   0.3333333  -0.3333333), wk =   0.2222222

     Dense  grid:    18569 G-vectors     FFT dimensions: (  60,  60,  60)

     Smooth grid:     6541 G-vectors     FFT dimensions: (  40,  40,  40)

     Dynamical RAM for                 wfc:       0.09 MB

     Dynamical RAM for     wfc (w. buffer):       1.14 MB

     Dynamical RAM for           str. fact:       0.21 MB

     Dynamical RAM for           local pot:       0.00 MB

     Dynamical RAM for          nlocal pot:       0.16 MB

     Dynamical RAM for                qrad:       4.03 MB

     Dynamical RAM for          rho,v,vnew:       2.90 MB

     Dynamical RAM for               rhoin:       0.97 MB

     Dynamical RAM for            rho*nmix:       2.27 MB

     Dynamical RAM for           G-vectors:       0.28 MB

     Dynamical RAM for          h,s,v(r/c):       0.14 MB

     Dynamical RAM for          <psi|beta>:       0.02 MB

     Dynamical RAM for                 psi:       0.18 MB

     Dynamical RAM for                hpsi:       0.18 MB

     Dynamical RAM for                spsi:       0.18 MB

     Dynamical RAM for      wfcinit/wfcrot:       0.19 MB

     Dynamical RAM for           addusdens:      13.39 MB

     Estimated static dynamical RAM per process >      12.45 MB

     Estimated max dynamical RAM per process >      28.10 MB

     Estimated total dynamical RAM >     112.41 MB

     Check: negative core charge=   -0.000041
     Generating pointlists ...
     new r_m :   0.2019 (alat units)  1.6154 (a.u.) for type    1
     new r_m :   0.2019 (alat units)  1.6154 (a.u.) for type    2
     new r_m :   0.2019 (alat units)  1.6154 (a.u.) for type    3

     Initial potential from superposition of free atoms

     starting charge      44.0000, renormalised to      46.0000
     Starting wfcs are   34 randomized atomic wfcs
     Checking if some PAW data can be deallocated... 
       PAW data deallocated on    2 nodes for type:  3

     total cpu time spent up to now is        1.5 secs

     Self-consistent Calculation

     iteration #  1     ecut=    35.00 Ry     beta= 0.70
     Davidson diagonalization with overlap

---- Real-time Memory Report at c_bands before calling an iterative solver
            69 MiB given to the printing process from OS
             0 MiB allocation reported by mallinfo(arena+hblkhd)
           189 MiB available memory on the node where the printing process lives
------------------
     ethr =  1.00E-02,  avg # of iterations =  2.9

     total cpu time spent up to now is        2.9 secs

     total energy              =    -671.01105011 Ry
     estimated scf accuracy    <      13.19751992 Ry

     total magnetization       =    -0.02 Bohr mag/cell
     absolute magnetization    =     8.36 Bohr mag/cell

     iteration #  2     ecut=    35.00 Ry     beta= 0.70
     Davidson diagonalization with overlap

---- Real-time Memory Report at c_bands before calling an iterative solver
            71 MiB given to the printing process from OS
             0 MiB allocation reported by mallinfo(arena+hblkhd)
           210 MiB available memory on the node where the printing process lives
------------------
     ethr =  1.00E-02,  avg # of iterations =  3.2

     total cpu time spent up to now is        4.4 secs

     total energy              =    -672.97050108 Ry
     estimated scf accuracy    <      60.17158949 Ry

     total magnetization       =    -0.00 Bohr mag/cell
     absolute magnetization    =     0.59 Bohr mag/cell

     iteration #  3     ecut=    35.00 Ry     beta= 0.70
     Davidson diagonalization with overlap

---- Real-time Memory Report at c_bands before calling an iterative solver
            71 MiB given to the printing process from OS
             0 MiB allocation reported by mallinfo(arena+hblkhd)
           209 MiB available memory on the node where the printing process lives
------------------
     ethr =  1.00E-02,  avg # of iterations =  2.8

     total cpu time spent up to now is        5.6 secs

     total energy              =    -678.63902658 Ry
     estimated scf accuracy    <       0.34805947 Ry

     total magnetization       =     0.06 Bohr mag/cell
     absolute magnetization    =     5.33 Bohr mag/cell

     iteration #  4     ecut=    35.00 Ry     beta= 0.70
     Davidson diagonalization with overlap

---- Real-time Memory Report at c_bands before calling an iterative solver
            71 MiB given to the printing process from OS
             0 MiB allocation reported by mallinfo(arena+hblkhd)
           174 MiB available memory on the node where the printing process lives
------------------
     ethr =  7.57E-04,  avg # of iterations =  2.2

     total cpu time spent up to now is        6.7 secs

     total energy              =    -678.42985717 Ry
     estimated scf accuracy    <       1.69740847 Ry

     total magnetization       =    -1.80 Bohr mag/cell
     absolute magnetization    =     4.95 Bohr mag/cell

     iteration #  5     ecut=    35.00 Ry     beta= 0.70
     Davidson diagonalization with overlap

---- Real-time Memory Report at c_bands before calling an iterative solver
            71 MiB given to the printing process from OS
             0 MiB allocation reported by mallinfo(arena+hblkhd)
           174 MiB available memory on the node where the printing process lives
------------------
     ethr =  7.57E-04,  avg # of iterations =  2.3

     total cpu time spent up to now is        7.8 secs

     total energy              =    -678.50389759 Ry
     estimated scf accuracy    <       9.48283383 Ry

     total magnetization       =     2.73 Bohr mag/cell
     absolute magnetization    =     4.09 Bohr mag/cell

     iteration #  6     ecut=    35.00 Ry     beta= 0.70
     Davidson diagonalization with overlap

---- Real-time Memory Report at c_bands before calling an iterative solver
            72 MiB given to the printing process from OS
             0 MiB allocation reported by mallinfo(arena+hblkhd)
           169 MiB available memory on the node where the printing process lives
------------------
     ethr =  7.57E-04,  avg # of iterations =  2.0

     total cpu time spent up to now is        8.8 secs

     total energy              =    -678.71896234 Ry
     estimated scf accuracy    <       0.15556443 Ry

     total magnetization       =     0.46 Bohr mag/cell
     absolute magnetization    =     4.92 Bohr mag/cell

     iteration #  7     ecut=    35.00 Ry     beta= 0.70
     Davidson diagonalization with overlap

---- Real-time Memory Report at c_bands before calling an iterative solver
            72 MiB given to the printing process from OS
             0 MiB allocation reported by mallinfo(arena+hblkhd)
           174 MiB available memory on the node where the printing process lives
------------------
     ethr =  3.38E-04,  avg # of iterations =  1.2

     total cpu time spent up to now is        9.7 secs

     total energy              =    -678.72090478 Ry
     estimated scf accuracy    <       0.01529296 Ry

     total magnetization       =     0.14 Bohr mag/cell
     absolute magnetization    =     4.89 Bohr mag/cell

     iteration #  8     ecut=    35.00 Ry     beta= 0.70
     Davidson diagonalization with overlap

---- Real-time Memory Report at c_bands before calling an iterative solver
            72 MiB given to the printing process from OS
             0 MiB allocation reported by mallinfo(arena+hblkhd)
           169 MiB available memory on the node where the printing process lives
------------------
     ethr =  3.32E-05,  avg # of iterations =  1.8

     total cpu time spent up to now is       10.6 secs

     total energy              =    -678.72096669 Ry
     estimated scf accuracy    <       0.00500948 Ry

     total magnetization       =     0.09 Bohr mag/cell
     absolute magnetization    =     4.87 Bohr mag/cell

     iteration #  9     ecut=    35.00 Ry     beta= 0.70
     Davidson diagonalization with overlap

---- Real-time Memory Report at c_bands before calling an iterative solver
            72 MiB given to the printing process from OS
             0 MiB allocation reported by mallinfo(arena+hblkhd)
           167 MiB available memory on the node where the printing process lives
------------------
     ethr =  1.09E-05,  avg # of iterations =  1.2

     total cpu time spent up to now is       11.5 secs

     total energy              =    -678.72107243 Ry
     estimated scf accuracy    <       0.00007219 Ry

     total magnetization       =    -0.01 Bohr mag/cell
     absolute magnetization    =     4.87 Bohr mag/cell

     iteration # 10     ecut=    35.00 Ry     beta= 0.70
     Davidson diagonalization with overlap

---- Real-time Memory Report at c_bands before calling an iterative solver
            72 MiB given to the printing process from OS
             0 MiB allocation reported by mallinfo(arena+hblkhd)
           201 MiB available memory on the node where the printing process lives
------------------
     ethr =  1.57E-07,  avg # of iterations =  2.3

     total cpu time spent up to now is       12.8 secs

     total energy              =    -678.72107838 Ry
     estimated scf accuracy    <       0.00000478 Ry

     total magnetization       =    -0.00 Bohr mag/cell
     absolute magnetization    =     4.86 Bohr mag/cell

     iteration # 11     ecut=    35.00 Ry     beta= 0.70
     Davidson diagonalization with overlap

---- Real-time Memory Report at c_bands before calling an iterative solver
            72 MiB given to the printing process from OS
             0 MiB allocation reported by mallinfo(arena+hblkhd)
           201 MiB available memory on the node where the printing process lives
------------------
     ethr =  1.04E-08,  avg # of iterations =  2.1

     total cpu time spent up to now is       14.1 secs

     total energy              =    -678.72107914 Ry
     estimated scf accuracy    <       0.00003769 Ry

     total magnetization       =     0.01 Bohr mag/cell
     absolute magnetization    =     4.86 Bohr mag/cell

     iteration # 12     ecut=    35.00 Ry     beta= 0.70
     Davidson diagonalization with overlap

---- Real-time Memory Report at c_bands before calling an iterative solver
            72 MiB given to the printing process from OS
             0 MiB allocation reported by mallinfo(arena+hblkhd)
           170 MiB available memory on the node where the printing process lives
------------------
     ethr =  1.04E-08,  avg # of iterations =  1.0

     total cpu time spent up to now is       15.1 secs

     total energy              =    -678.72107974 Ry
     estimated scf accuracy    <       0.00000008 Ry

     total magnetization       =    -0.00 Bohr mag/cell
     absolute magnetization    =     4.86 Bohr mag/cell

     iteration # 13     ecut=    35.00 Ry     beta= 0.70
     Davidson diagonalization with overlap

---- Real-time Memory Report at c_bands before calling an iterative solver
            72 MiB given to the printing process from OS
             0 MiB allocation reported by mallinfo(arena+hblkhd)
           170 MiB available memory on the node where the printing process lives
------------------
     ethr =  1.81E-10,  avg # of iterations =  2.0

     total cpu time spent up to now is       16.2 secs

     total energy              =    -678.72107976 Ry
     estimated scf accuracy    <       0.00000001 Ry

     total magnetization       =     0.00 Bohr mag/cell
     absolute magnetization    =     4.86 Bohr mag/cell

     iteration # 14     ecut=    35.00 Ry     beta= 0.70
     Davidson diagonalization with overlap

---- Real-time Memory Report at c_bands before calling an iterative solver
            72 MiB given to the printing process from OS
             0 MiB allocation reported by mallinfo(arena+hblkhd)
           200 MiB available memory on the node where the printing process lives
------------------
     ethr =  2.24E-11,  avg # of iterations =  2.0

     total cpu time spent up to now is       18.4 secs

     total energy              =    -678.72107976 Ry
     estimated scf accuracy    <       0.00000020 Ry

     total magnetization       =     0.00 Bohr mag/cell
     absolute magnetization    =     4.86 Bohr mag/cell

     iteration # 15     ecut=    35.00 Ry     beta= 0.70
     Davidson diagonalization with overlap

---- Real-time Memory Report at c_bands before calling an iterative solver
            72 MiB given to the printing process from OS
             0 MiB allocation reported by mallinfo(arena+hblkhd)
           166 MiB available memory on the node where the printing process lives
------------------
     ethr =  2.24E-11,  avg # of iterations =  1.4

     Magnetic moment per site  (integrated on atomic sphere of radius R)
     atom   1 (R=0.202)  charge= 14.5424  magn=  2.2506
     atom   2 (R=0.202)  charge= 14.5423  magn= -2.2507
     atom   3 (R=0.202)  charge=  5.6499  magn= -0.0000
     atom   4 (R=0.202)  charge=  5.6499  magn= -0.0000

     total cpu time spent up to now is       19.4 secs

     End of self-consistent calculation

 ------ SPIN UP ------------


          k = 0.0000 0.0000 0.0000 (   811 PWs)   bands (ev):

   -80.9892 -77.9244 -44.4943 -44.3013 -44.3013 -41.4606 -41.4010 -41.4010
    -5.3266  -4.1849   6.3312  10.3034  10.3034  11.3305  12.1829  12.7793
    12.7793  12.8551  12.8551  13.6150  13.6150  14.7460  15.1269  15.1269
    17.2724  17.2724  17.3722  22.2027

     occupation numbers 
     1.0000   1.0000   1.0000   1.0000   1.0000   1.0000   1.0000   1.0000
     1.0000   1.0000   1.0000   1.0000   1.0000   1.0000   1.0000   1.0000
     1.0000   1.0000   1.0000   1.0000   1.0000   1.0000   1.0125   1.0125
     0.0000   0.0000   0.0000   0.0000

          k = 0.5338-0.1902-0.1902 (   827 PWs)   bands (ev):

   -80.9824 -77.9166 -44.4853 -44.3631 -44.3167 -41.4733 -41.4497 -41.4187
    -4.1753  -3.7300   8.0170   8.2875   8.7654   9.8139  10.3511  11.1507
    12.2845  13.5134  13.6655  14.1399  14.4828  14.5143  15.7761  15.8744
    16.8976  17.0599  21.2438  23.5492

     occupation numbers 
     1.0000   1.0000   1.0000   1.0000   1.0000   1.0000   1.0000   1.0000
     1.0000   1.0000   1.0000   1.0000   1.0000   1.0000   1.0000   1.0000
     1.0000   1.0000   1.0000   1.0000   1.0000   1.0000   0.4413   0.2204
     0.0000   0.0000   0.0000   0.0000

          k = 0.3436 0.3436-0.3804 (   827 PWs)   bands (ev):

   -80.9824 -77.9166 -44.4852 -44.3633 -44.3166 -41.4734 -41.4496 -41.4187
    -4.0801  -3.8345   8.0176   8.1854   9.1260   9.5472  10.3048  11.2364
    12.3179  13.4390  13.5375  14.3375  14.3730  14.5848  15.6655  15.8754
    17.1682  17.3733  20.4508  22.7944

     occupation numbers 
     1.0000   1.0000   1.0000   1.0000   1.0000   1.0000   1.0000   1.0000
     1.0000   1.0000   1.0000   1.0000   1.0000   1.0000   1.0000   1.0000
     1.0000   1.0000   1.0000   1.0000   1.0000   1.0000   0.7421   0.2186
     0.0000   0.0000   0.0000   0.0000

          k =-0.7241 0.7241 0.0000 (   831 PWs)   bands (ev):

   -80.9789 -77.9126 -44.4804 -44.3592 -44.3590 -41.4685 -41.4683 -41.4439
    -3.4793  -3.4792   8.2966   8.3452   8.8779   9.0013   9.2129   9.3935
    13.3496  13.4365  13.4781  14.2313  14.4712  15.4398  15.5670  15.8762
    17.1907  17.3019  23.8724  24.3333

     occupation numbers 
     1.0000   1.0000   1.0000   1.0000   1.0000   1.0000   1.0000   1.0000
     1.0000   1.0000   1.0000   1.0000   1.0000   1.0000   1.0000   1.0000
     1.0000   1.0000   1.0000   1.0000   1.0000   1.0794   0.9604   0.2172
     0.0000   0.0000   0.0000   0.0000

          k = 0.1534 0.1534 0.1534 (   817 PWs)   bands (ev):

   -80.9892 -77.9244 -44.4941 -44.3011 -44.3011 -41.4606 -41.4008 -41.4008
    -5.0737  -4.5077   7.2315   9.4146  10.5453  10.5453  11.8589  11.8589
    12.7913  12.8966  12.8966  14.5817  14.5817  14.8063  15.0893  15.0893
    16.9461  16.9461  18.6680  21.0055

     occupation numbers 
     1.0000   1.0000   1.0000   1.0000   1.0000   1.0000   1.0000   1.0000
     1.0000   1.0000   1.0000   1.0000   1.0000   1.0000   1.0000   1.0000
     1.0000   1.0000   1.0000   1.0000   1.0000   1.0001   1.0079   1.0079
     0.0000   0.0000   0.0000   0.0000

          k =-0.9143 0.5338 0.5338 (   815 PWs)   bands (ev):

   -80.9823 -77.9165 -44.4849 -44.3627 -44.3164 -41.4730 -41.4494 -41.4185
    -4.0551  -3.8558   7.6952   8.1490   9.0593  10.1552  10.4182  11.5798
    11.9647  13.5461  13.5715  13.9750  14.1075  14.6303  15.8202  15.8447
    16.7091  17.4375  21.8286  22.1791

     occupation numbers 
     1.0000   1.0000   1.0000   1.0000   1.0000   1.0000   1.0000   1.0000
     1.0000   1.0000   1.0000   1.0000   1.0000   1.0000   1.0000   1.0000
     1.0000   1.0000   1.0000   1.0000   1.0000   1.0000   0.3323   0.2786
     0.0000   0.0000   0.0000   0.0000

 ------ SPIN DOWN ----------


          k = 0.0000 0.0000 0.0000 (   811 PWs)   bands (ev):

   -80.9892 -77.9244 -44.4943 -44.3012 -44.3012 -41.4606 -41.4010 -41.4010
    -5.3266  -4.1849   6.3312  10.3034  10.3034  11.3305  12.1830  12.7793
    12.7793  12.8551  12.8551  13.6150  13.6150  14.7460  15.1269  15.1269
    17.2724  17.2724  17.3722  22.2027

     occupation numbers 
     1.0000   1.0000   1.0000   1.0000   1.0000   1.0000   1.0000   1.0000
     1.0000   1.0000   1.0000   1.0000   1.0000   1.0000   1.0000   1.0000
     1.0000   1.0000   1.0000   1.0000   1.0000   1.0000   1.0125   1.0125
     0.0000   0.0000   0.0000   0.0000

          k = 0.5338-0.1902-0.1902 (   827 PWs)   bands (ev):

   -80.9823 -77.9166 -44.4852 -44.3630 -44.3166 -41.4733 -41.4497 -41.4187
    -4.1753  -3.7300   8.0170   8.2875   8.7654   9.8139  10.3511  11.1507
    12.2845  13.5134  13.6655  14.1399  14.4828  14.5143  15.7761  15.8744
    16.8976  17.0599  21.2438  23.5493

     occupation numbers 
     1.0000   1.0000   1.0000   1.0000   1.0000   1.0000   1.0000   1.0000
     1.0000   1.0000   1.0000   1.0000   1.0000   1.0000   1.0000   1.0000
     1.0000   1.0000   1.0000   1.0000   1.0000   1.0000   0.4414   0.2205
     0.0000   0.0000   0.0000   0.0000

          k = 0.3436 0.3436-0.3804 (   827 PWs)   bands (ev):

   -80.9823 -77.9166 -44.4851 -44.3632 -44.3165 -41.4734 -41.4496 -41.4187
    -4.0801  -3.8345   8.0176   8.1854   9.1260   9.5472  10.3048  11.2364
    12.3179  13.4391  13.5375  14.3375  14.3730  14.5848  15.6655  15.8754
    17.1682  17.3733  20.4508  22.7944

     occupation numbers 
     1.0000   1.0000   1.0000   1.0000   1.0000   1.0000   1.0000   1.0000
     1.0000   1.0000   1.0000   1.0000   1.0000   1.0000   1.0000   1.0000
     1.0000   1.0000   1.0000   1.0000   1.0000   1.0000   0.7421   0.2186
     0.0000   0.0000   0.0000   0.0000

          k =-0.7241 0.7241 0.0000 (   831 PWs)   bands (ev):

   -80.9789 -77.9127 -44.4803 -44.3592 -44.3589 -41.4685 -41.4683 -41.4440
    -3.4793  -3.4792   8.2966   8.3452   8.8779   9.0013   9.2129   9.3935
    13.3496  13.4365  13.4782  14.2313  14.4712  15.4398  15.5670  15.8762
    17.1907  17.3019  23.8724  24.3333

     occupation numbers 
     1.0000   1.0000   1.0000   1.0000   1.0000   1.0000   1.0000   1.0000
     1.0000   1.0000   1.0000   1.0000   1.0000   1.0000   1.0000   1.0000
     1.0000   1.0000   1.0000   1.0000   1.0000   1.0794   0.9605   0.2172
     0.0000   0.0000   0.0000   0.0000

          k = 0.1534 0.1534 0.1534 (   817 PWs)   bands (ev):

   -80.9891 -77.9244 -44.4941 -44.3011 -44.3011 -41.4606 -41.4009 -41.4009
    -5.0737  -4.5077   7.2315   9.4146  10.5453  10.5453  11.8589  11.8589
    12.7913  12.8966  12.8966  14.5817  14.5817  14.8062  15.0893  15.0893
    16.9461  16.9461  18.6680  21.0055

     occupation numbers 
     1.0000   1.0000   1.0000   1.0000   1.0000   1.0000   1.0000   1.0000
     1.0000   1.0000   1.0000   1.0000   1.0000   1.0000   1.0000   1.0000
     1.0000   1.0000   1.0000   1.0000   1.0000   1.0001   1.0079   1.0079
     0.0000   0.0000   0.0000   0.0000

          k =-0.9143 0.5338 0.5338 (   815 PWs)   bands (ev):

   -80.9823 -77.9166 -44.4848 -44.3627 -44.3163 -41.4730 -41.4494 -41.4185
    -4.0551  -3.8558   7.6952   8.1491   9.0593  10.1552  10.4182  11.5798
    11.9648  13.5462  13.5715  13.9751  14.1075  14.6303  15.8202  15.8446
    16.7091  17.4375  21.8286  22.1791

     occupation numbers 
     1.0000   1.0000   1.0000   1.0000   1.0000   1.0000   1.0000   1.0000
     1.0000   1.0000   1.0000   1.0000   1.0000   1.0000   1.0000   1.0000
     1.0000   1.0000   1.0000   1.0000   1.0000   1.0000   0.3324   0.2786
     0.0000   0.0000   0.0000   0.0000

     the Fermi energy is    15.7920 ev

!    total energy              =    -678.72107976 Ry
     estimated scf accuracy    <          2.7E-09 Ry
     smearing contrib. (-TS)   =      -0.00696364 Ry
     internal energy E=F+TS    =    -678.71411611 Ry

     The total energy is F=E-TS. E is the sum of the following terms:
     one-electron contribution =    -341.32820540 Ry
     hartree contribution      =     200.33513385 Ry
     xc contribution           =     -79.52202957 Ry
     ewald contribution        =    -439.97286945 Ry
     one-center paw contrib.   =     -18.22614554 Ry
      -> PAW hartree energy AE =       0.00000000 Ry
      -> PAW hartree energy PS =       0.00000000 Ry
      -> PAW xc energy AE      =       0.00000000 Ry
      -> PAW xc energy PS      =       0.00000000 Ry
      -> total E_H with PAW    =     200.33513385 Ry
      -> total E_XC with PAW   =     -79.52202957 Ry

     total magnetization       =    -0.00 Bohr mag/cell
     absolute magnetization    =     4.86 Bohr mag/cell

     convergence has been achieved in  15 iterations

     Writing all to output data dir ./tmp/CoO.save/ :
     XML data file, charge density, pseudopotentials, collected wavefunctions

     init_run     :      1.24s CPU      1.26s WALL (       1 calls)
     electrons    :     16.82s CPU     17.87s WALL (       1 calls)

     Called by init_run:
     wfcinit      :      0.28s CPU      0.28s WALL (       1 calls)
     wfcinit:atom :      0.00s CPU      0.00s WALL (      12 calls)
     wfcinit:wfcr :      0.27s CPU      0.28s WALL (      12 calls)
     potinit      :      0.41s CPU      0.41s WALL (       1 calls)
     hinit0       :      0.46s CPU      0.45s WALL (       1 calls)

     Called by electrons:
     c_bands      :     10.02s CPU     11.19s WALL (      15 calls)
     sum_band     :      2.94s CPU      2.92s WALL (      15 calls)
     v_of_rho     :      1.37s CPU      1.35s WALL (      16 calls)
     v_h          :      0.03s CPU      0.03s WALL (      16 calls)
     v_xc         :      1.34s CPU      1.31s WALL (      16 calls)
     newd         :      0.89s CPU      0.89s WALL (      16 calls)
     PAW_pot      :      1.64s CPU      1.59s WALL (      16 calls)
     mix_rho      :      0.11s CPU      0.11s WALL (      15 calls)

     Called by c_bands:
     init_us_2    :      0.06s CPU      0.06s WALL (     372 calls)
     cegterg      :      9.88s CPU     11.04s WALL (     180 calls)

     Called by sum_band:
     sum_band:wei :      0.01s CPU      0.01s WALL (      15 calls)
     sum_band:loo :      1.48s CPU      1.49s WALL (      15 calls)
     sum_band:buf :      0.01s CPU      0.01s WALL (     180 calls)
     sum_band:ini :      0.03s CPU      0.03s WALL (     180 calls)
     sum_band:cal :      0.16s CPU      0.16s WALL (     180 calls)
     sum_band:bec :      0.01s CPU      0.01s WALL (     180 calls)
     addusdens    :      1.32s CPU      1.28s WALL (      15 calls)
                                        0.00s GPU  (      15 calls)
     addusd:skk   :      0.00s CPU      0.00s WALL (      45 calls)
                                        0.00s GPU  (      45 calls)

     Called by *egterg:
     cdiaghg      :      0.67s CPU      0.67s WALL (     546 calls)
     cegterg:over :      0.52s CPU      0.52s WALL (     366 calls)
     cegterg:upda :      0.18s CPU      0.18s WALL (     366 calls)
     cegterg:last :      0.43s CPU      1.63s WALL (     332 calls)
     h_psi        :      7.55s CPU      7.55s WALL (     558 calls)
     s_psi        :      0.32s CPU      0.32s WALL (     558 calls)
     g_psi        :      0.01s CPU      0.01s WALL (     366 calls)

     Called by h_psi:
     h_psi:calbec :      0.43s CPU      0.42s WALL (     558 calls)
     vloc_psi     :      6.78s CPU      6.79s WALL (     558 calls)
     add_vuspsi   :      0.32s CPU      0.32s WALL (     558 calls)

     General routines
     calbec       :      0.59s CPU      0.59s WALL (     738 calls)
     fft          :      0.81s CPU      0.79s WALL (     394 calls)
     ffts         :      0.20s CPU      0.19s WALL (      62 calls)
     fftw         :      6.77s CPU      6.79s WALL (   29712 calls)
     interpolate  :      0.23s CPU      0.22s WALL (      32 calls)

     Parallel routines

     PAW routines
     PAW_pot      :      1.64s CPU      1.59s WALL (      16 calls)
     PAW_symme    :      0.00s CPU      0.00s WALL (      31 calls)

     PWSCF        :     18.36s CPU     19.43s WALL


   This run was terminated on:  16: 5:24  12Jul2025            

=------------------------------------------------------------------------------=
   JOB DONE.
=------------------------------------------------------------------------------=
