
     Program PROJWFC v.7.4.1 starts on 12Jul2025 at 16: 7:58 

     This program is part of the open-source Quantum ESPRESSO suite
     for quantum simulation of materials; please cite
         "P. Giannozzi et al., J. Phys.:Condens. Matter 21 395502 (2009);
         "P. Giannozzi et al., J. Phys.:Condens. Matter 29 465901 (2017);
         "P. Giannozzi et al., J. Chem. Phys. 152 154105 (2020);
          URL http://www.quantum-espresso.org", 
     in publications or presentations arising from this work. More details at
     http://www.quantum-espresso.org/quote

     Parallel version (MPI), running on     1 processors

     MPI processes distributed on     1 nodes
     287 MiB available memory on the printing compute node when the environment starts


     Reading xml data from directory:

     ./tmp/CoO.save/
     Message from routine volume:
     axis vectors are left-handed
     file O.pbesol-n-kjpaw_psl.0.1.UPF: wavefunction(s)  2P renormalized

     IMPORTANT: XC functional enforced from input :
     Exchange-correlation= PBESOL
                           (   1   4  10   8   0   0   0)
     Any further DFT definition will be discarded
     Please, verify this is what you really want


     G-vector sticks info
     --------------------
     sticks:   dense  smooth     PW     G-vecs:    dense   smooth      PW
     Sum        1167     587    207                18569     6541    1403

     Using Slab Decomposition


     Check: negative core charge=   -0.000041

     Gaussian broadening (read from input): ngauss,degauss=   0    0.005000


     Calling projwave .... 
     Subspace diagonalization in iterative solution of the eigenvalue problem:
     a serial algorithm will be used


  Problem Sizes 
  natomwfc =           34
  nbnd     =           40
  nkstot   =           64
  npwx     =          846
  nkb      =           52


     Atomic states used for projection
     (read from pseudopotential files):

     state #   1: atom   1 (Co1), wfc  1 (l=0 m= 1)
     state #   2: atom   1 (Co1), wfc  2 (l=1 m= 1)
     state #   3: atom   1 (Co1), wfc  2 (l=1 m= 2)
     state #   4: atom   1 (Co1), wfc  2 (l=1 m= 3)
     state #   5: atom   1 (Co1), wfc  3 (l=2 m= 1)
     state #   6: atom   1 (Co1), wfc  3 (l=2 m= 2)
     state #   7: atom   1 (Co1), wfc  3 (l=2 m= 3)
     state #   8: atom   1 (Co1), wfc  3 (l=2 m= 4)
     state #   9: atom   1 (Co1), wfc  3 (l=2 m= 5)
     state #  10: atom   1 (Co1), wfc  4 (l=0 m= 1)
     state #  11: atom   1 (Co1), wfc  5 (l=1 m= 1)
     state #  12: atom   1 (Co1), wfc  5 (l=1 m= 2)
     state #  13: atom   1 (Co1), wfc  5 (l=1 m= 3)
     state #  14: atom   2 (Co2), wfc  1 (l=0 m= 1)
     state #  15: atom   2 (Co2), wfc  2 (l=1 m= 1)
     state #  16: atom   2 (Co2), wfc  2 (l=1 m= 2)
     state #  17: atom   2 (Co2), wfc  2 (l=1 m= 3)
     state #  18: atom   2 (Co2), wfc  3 (l=2 m= 1)
     state #  19: atom   2 (Co2), wfc  3 (l=2 m= 2)
     state #  20: atom   2 (Co2), wfc  3 (l=2 m= 3)
     state #  21: atom   2 (Co2), wfc  3 (l=2 m= 4)
     state #  22: atom   2 (Co2), wfc  3 (l=2 m= 5)
     state #  23: atom   2 (Co2), wfc  4 (l=0 m= 1)
     state #  24: atom   2 (Co2), wfc  5 (l=1 m= 1)
     state #  25: atom   2 (Co2), wfc  5 (l=1 m= 2)
     state #  26: atom   2 (Co2), wfc  5 (l=1 m= 3)
     state #  27: atom   3 (O  ), wfc  1 (l=0 m= 1)
     state #  28: atom   3 (O  ), wfc  2 (l=1 m= 1)
     state #  29: atom   3 (O  ), wfc  2 (l=1 m= 2)
     state #  30: atom   3 (O  ), wfc  2 (l=1 m= 3)
     state #  31: atom   4 (O  ), wfc  1 (l=0 m= 1)
     state #  32: atom   4 (O  ), wfc  2 (l=1 m= 1)
     state #  33: atom   4 (O  ), wfc  2 (l=1 m= 2)
     state #  34: atom   4 (O  ), wfc  2 (l=1 m= 3)

 k =   0.0000000000  0.0000000000  0.0000000000
==== e(   1) =   -80.98812 eV ==== 
     psi = 0.987*[#   1]+0.004*[#  10]+0.003*[#  23]
    |psi|^2 = 1.000
==== e(   2) =   -77.92516 eV ==== 
     psi = 0.986*[#  14]+0.005*[#  23]+0.003*[#  10]
    |psi|^2 = 1.000
==== e(   3) =   -44.49330 eV ==== 
     psi = 0.331*[#   2]+0.331*[#   3]+0.331*[#   4]+0.002*[#  24]+0.002*[#  25]
          +0.002*[#  26]
    |psi|^2 = 1.000
==== e(   4) =   -44.30021 eV ==== 
     psi = 0.330*[#   2]+0.330*[#   3]+0.330*[#   4]+0.003*[#  11]+0.003*[#  12]
          +0.003*[#  13]
    |psi|^2 = 1.000
==== e(   5) =   -44.30021 eV ==== 
     psi = 0.330*[#   2]+0.330*[#   3]+0.330*[#   4]+0.003*[#  11]+0.003*[#  12]
          +0.003*[#  13]
    |psi|^2 = 1.000
==== e(   6) =   -41.46138 eV ==== 
     psi = 0.330*[#  15]+0.330*[#  16]+0.330*[#  17]+0.002*[#  11]+0.002*[#  12]
          +0.002*[#  13]
    |psi|^2 = 1.000
==== e(   7) =   -41.40174 eV ==== 
     psi = 0.330*[#  15]+0.330*[#  16]+0.330*[#  17]+0.003*[#  24]+0.003*[#  25]
          +0.003*[#  26]
    |psi|^2 = 1.000
==== e(   8) =   -41.40174 eV ==== 
     psi = 0.330*[#  15]+0.330*[#  16]+0.330*[#  17]+0.003*[#  24]+0.003*[#  25]
          +0.003*[#  26]
    |psi|^2 = 1.000
==== e(   9) =    -5.32661 eV ==== 
     psi = 0.313*[#  27]+0.313*[#  31]+0.184*[#  10]+0.180*[#  23]+0.004*[#  14]
          +0.004*[#   1]
    |psi|^2 = 1.000
==== e(  10) =    -4.18495 eV ==== 
     psi = 0.325*[#  27]+0.325*[#  31]+0.058*[#  11]+0.058*[#  12]+0.058*[#  13]
          +0.057*[#  24]+0.057*[#  25]+0.057*[#  26]+0.001*[#  15]+0.001*[#  16]
          +0.001*[#  17]+0.001*[#   2]+0.001*[#   3]+0.001*[#   4]
    |psi|^2 = 1.000
==== e(  11) =     6.33121 eV ==== 
     psi = 0.163*[#  10]+0.158*[#  23]+0.096*[#  28]+0.096*[#  29]+0.096*[#  30]
          +0.096*[#  32]+0.096*[#  33]+0.096*[#  34]+0.020*[#   6]+0.020*[#   7]
          +0.020*[#   9]+0.012*[#  19]+0.012*[#  20]+0.012*[#  22]+0.005*[#  14]
          +0.004*[#   1]
    |psi|^2 = 1.000
==== e(  12) =    10.30366 eV ==== 
     psi = 0.179*[#   5]+0.179*[#   8]+0.084*[#  28]+0.084*[#  29]+0.084*[#  30]
          +0.084*[#  32]+0.084*[#  33]+0.084*[#  34]+0.039*[#  18]+0.039*[#  21]
          +0.016*[#   6]+0.016*[#   7]+0.016*[#   9]+0.004*[#  19]+0.004*[#  20]
          +0.004*[#  22]
    |psi|^2 = 0.998
==== e(  13) =    10.30367 eV ==== 
     psi = 0.179*[#   5]+0.179*[#   8]+0.084*[#  28]+0.084*[#  29]+0.084*[#  30]
          +0.084*[#  32]+0.084*[#  33]+0.084*[#  34]+0.039*[#  18]+0.039*[#  21]
          +0.016*[#   6]+0.016*[#   7]+0.016*[#   9]+0.004*[#  19]+0.004*[#  20]
          +0.004*[#  22]
    |psi|^2 = 0.998
==== e(  14) =    11.33046 eV ==== 
     psi = 0.156*[#  28]+0.156*[#  29]+0.156*[#  30]+0.156*[#  32]+0.156*[#  33]
          +0.156*[#  34]+0.010*[#  24]+0.010*[#  25]+0.010*[#  26]+0.010*[#  11]
          +0.010*[#  12]+0.010*[#  13]
    |psi|^2 = 0.997
==== e(  15) =    12.18356 eV ==== 
     psi = 0.269*[#   6]+0.269*[#   7]+0.269*[#   9]+0.039*[#  19]+0.039*[#  20]
          +0.039*[#  22]+0.028*[#  23]+0.006*[#  10]+0.005*[#  27]+0.005*[#  31]
          +0.004*[#  28]+0.004*[#  29]+0.004*[#  30]+0.004*[#  32]+0.004*[#  33]
          +0.004*[#  34]
    |psi|^2 = 0.991
==== e(  16) =    12.77928 eV ==== 
     psi = 0.164*[#  28]+0.164*[#  29]+0.164*[#  30]+0.164*[#  32]+0.164*[#  33]
          +0.164*[#  34]+0.002*[#  11]+0.002*[#  12]+0.002*[#  13]+0.002*[#  24]
          +0.002*[#  25]+0.002*[#  26]
    |psi|^2 = 0.997
==== e(  17) =    12.77929 eV ==== 
     psi = 0.164*[#  28]+0.164*[#  29]+0.164*[#  30]+0.164*[#  32]+0.164*[#  33]
          +0.164*[#  34]+0.002*[#  11]+0.002*[#  12]+0.002*[#  13]+0.002*[#  24]
          +0.002*[#  25]+0.002*[#  26]
    |psi|^2 = 0.997
==== e(  18) =    12.85595 eV ==== 
     psi = 0.311*[#   6]+0.311*[#   7]+0.311*[#   9]+0.012*[#   5]+0.012*[#   8]
          +0.008*[#  19]+0.008*[#  20]+0.008*[#  22]+0.003*[#  18]+0.003*[#  21]
          +0.002*[#  28]+0.002*[#  29]+0.002*[#  30]+0.002*[#  32]+0.002*[#  33]
          +0.002*[#  34]
    |psi|^2 = 0.997
==== e(  19) =    12.85595 eV ==== 
     psi = 0.311*[#   6]+0.311*[#   7]+0.311*[#   9]+0.012*[#   5]+0.012*[#   8]
          +0.008*[#  19]+0.008*[#  20]+0.008*[#  22]+0.003*[#  18]+0.003*[#  21]
          +0.002*[#  28]+0.002*[#  29]+0.002*[#  30]+0.002*[#  32]+0.002*[#  33]
          +0.002*[#  34]
    |psi|^2 = 0.997
==== e(  20) =    13.61529 eV ==== 
     psi = 0.264*[#   5]+0.264*[#   8]+0.136*[#  18]+0.136*[#  21]+0.022*[#  28]
          +0.022*[#  29]+0.022*[#  30]+0.022*[#  32]+0.022*[#  33]+0.022*[#  34]
          +0.022*[#  19]+0.022*[#  20]+0.022*[#  22]
    |psi|^2 = 0.995
==== e(  21) =    13.61529 eV ==== 
     psi = 0.264*[#   5]+0.264*[#   8]+0.136*[#  18]+0.136*[#  21]+0.022*[#  28]
          +0.022*[#  29]+0.022*[#  30]+0.022*[#  32]+0.022*[#  33]+0.022*[#  34]
          +0.022*[#  19]+0.022*[#  20]+0.022*[#  22]
    |psi|^2 = 0.995
==== e(  22) =    14.74560 eV ==== 
     psi = 0.250*[#  19]+0.250*[#  20]+0.250*[#  22]+0.037*[#   6]+0.037*[#   7]
          +0.037*[#   9]+0.026*[#  10]+0.013*[#  28]+0.013*[#  29]+0.013*[#  30]
          +0.013*[#  32]+0.013*[#  33]+0.013*[#  34]+0.008*[#  23]+0.008*[#  27]
          +0.008*[#  31]
    |psi|^2 = 0.991
==== e(  23) =    15.12631 eV ==== 
     psi = 0.297*[#  19]+0.297*[#  20]+0.297*[#  22]+0.022*[#  18]+0.022*[#  21]
          +0.006*[#  28]+0.006*[#  29]+0.006*[#  30]+0.006*[#  32]+0.006*[#  33]
          +0.006*[#  34]+0.005*[#   6]+0.005*[#   7]+0.005*[#   9]+0.004*[#   5]
          +0.004*[#   8]
    |psi|^2 = 0.995
==== e(  24) =    15.12631 eV ==== 
     psi = 0.297*[#  19]+0.297*[#  20]+0.297*[#  22]+0.022*[#  18]+0.022*[#  21]
          +0.006*[#  28]+0.006*[#  29]+0.006*[#  30]+0.006*[#  32]+0.006*[#  33]
          +0.006*[#  34]+0.005*[#   6]+0.005*[#   7]+0.005*[#   9]+0.004*[#   5]
          +0.004*[#   8]
    |psi|^2 = 0.995
==== e(  25) =    17.27209 eV ==== 
     psi = 0.299*[#  18]+0.299*[#  21]+0.053*[#  28]+0.053*[#  29]+0.053*[#  30]
          +0.053*[#  32]+0.053*[#  33]+0.053*[#  34]+0.041*[#   5]+0.041*[#   8]
          
    |psi|^2 = 0.998
==== e(  26) =    17.27210 eV ==== 
     psi = 0.299*[#  18]+0.299*[#  21]+0.053*[#  28]+0.053*[#  29]+0.053*[#  30]
          +0.053*[#  32]+0.053*[#  33]+0.053*[#  34]+0.041*[#   5]+0.041*[#   8]
          
    |psi|^2 = 0.998
==== e(  27) =    17.37215 eV ==== 
     psi = 0.294*[#  10]+0.262*[#  23]+0.173*[#  27]+0.173*[#  31]+0.024*[#  19]
          +0.024*[#  20]+0.024*[#  22]+0.004*[#   6]+0.004*[#   7]+0.004*[#   9]
          +0.003*[#  14]+0.003*[#   1]
    |psi|^2 = 0.995
==== e(  28) =    22.20267 eV ==== 
     psi = 0.160*[#  27]+0.160*[#  31]+0.103*[#  11]+0.103*[#  12]+0.103*[#  13]
          +0.098*[#  24]+0.098*[#  25]+0.098*[#  26]
    |psi|^2 = 0.928
==== e(  29) =    24.25608 eV ==== 
     psi = 0.348*[#  23]+0.312*[#  10]+0.051*[#  28]+0.051*[#  29]+0.051*[#  30]
          +0.051*[#  32]+0.051*[#  33]+0.051*[#  34]+0.004*[#  19]+0.004*[#  20]
          +0.004*[#  22]+0.002*[#   6]+0.002*[#   7]+0.002*[#   9]+0.001*[#   1]
          
    |psi|^2 = 0.985
==== e(  30) =    32.06831 eV ==== 
     psi = 0.059*[#  11]+0.059*[#  12]+0.059*[#  13]+0.058*[#  24]+0.058*[#  25]
          +0.058*[#  26]+0.003*[#  28]+0.003*[#  29]+0.003*[#  30]+0.003*[#  32]
          +0.003*[#  33]+0.003*[#  34]
    |psi|^2 = 0.374
==== e(  31) =    32.19607 eV ==== 
     psi = 0.003*[#  19]+0.003*[#  20]+0.003*[#  22]+0.002*[#  10]
    |psi|^2 = 0.017
==== e(  32) =    32.45295 eV ==== 
     psi = 0.151*[#  11]+0.151*[#  12]+0.151*[#  13]+0.131*[#  24]+0.131*[#  25]
          +0.131*[#  26]+0.001*[#   2]+0.001*[#   3]+0.001*[#   4]
    |psi|^2 = 0.851
==== e(  33) =    32.45295 eV ==== 
     psi = 0.151*[#  11]+0.151*[#  12]+0.151*[#  13]+0.131*[#  24]+0.131*[#  25]
          +0.131*[#  26]+0.001*[#   2]+0.001*[#   3]+0.001*[#   4]
    |psi|^2 = 0.851
==== e(  34) =    36.37692 eV ==== 
     psi = 0.002*[#  19]+0.002*[#  20]+0.002*[#  22]
    |psi|^2 = 0.007
==== e(  35) =    36.37692 eV ==== 
     psi = 0.002*[#  19]+0.002*[#  20]+0.002*[#  22]
    |psi|^2 = 0.007
==== e(  36) =    38.18243 eV ==== 
     psi = 0.093*[#  11]+0.093*[#  12]+0.093*[#  13]+0.092*[#  24]+0.092*[#  25]
          +0.092*[#  26]+0.005*[#  28]+0.005*[#  29]+0.005*[#  30]+0.005*[#  32]
          +0.005*[#  33]+0.005*[#  34]
    |psi|^2 = 0.591
==== e(  37) =    39.64105 eV ==== 
     psi = 0.005*[#  23]+0.004*[#  10]
    |psi|^2 = 0.015
==== e(  38) =    40.41959 eV ==== 
     psi = 0.013*[#  27]+0.013*[#  31]+0.010*[#  24]+0.010*[#  25]+0.010*[#  26]
          +0.003*[#  11]+0.003*[#  12]+0.003*[#  13]
    |psi|^2 = 0.067
==== e(  39) =    40.68017 eV ==== 
     psi = 0.160*[#  24]+0.160*[#  25]+0.160*[#  26]+0.157*[#  11]+0.157*[#  12]
          +0.157*[#  13]+0.002*[#   2]+0.002*[#   3]+0.002*[#   4]+0.002*[#  15]
          +0.002*[#  16]+0.002*[#  17]+0.002*[#  28]+0.002*[#  29]+0.002*[#  30]
          +0.002*[#  32]+0.002*[#  33]+0.002*[#  34]
    |psi|^2 = 0.971
==== e(  40) =    40.68017 eV ==== 
     psi = 0.160*[#  24]+0.160*[#  25]+0.160*[#  26]+0.157*[#  11]+0.157*[#  12]
          +0.157*[#  13]+0.002*[#   2]+0.002*[#   3]+0.002*[#   4]+0.002*[#  15]
          +0.002*[#  16]+0.002*[#  17]+0.002*[#  28]+0.002*[#  29]+0.002*[#  30]
          +0.002*[#  32]+0.002*[#  33]+0.002*[#  34]
    |psi|^2 = 0.971

 k =   0.2669217713 -0.0951035257 -0.0951035257
==== e(   1) =   -80.98580 eV ==== 
     psi = 0.962*[#   1]+0.010*[#  11]+0.010*[#  12]+0.010*[#  13]+0.001*[#  24]
          +0.001*[#  25]+0.001*[#  26]
    |psi|^2 = 1.000
==== e(   2) =   -77.92255 eV ==== 
     psi = 0.962*[#  14]+0.010*[#  24]+0.010*[#  25]+0.010*[#  26]+0.001*[#  11]
          +0.001*[#  12]+0.001*[#  13]
    |psi|^2 = 1.000
==== e(   3) =   -44.48982 eV ==== 
     psi = 0.331*[#   2]+0.331*[#   3]+0.331*[#   4]+0.002*[#  24]+0.002*[#  25]
          +0.002*[#  26]
    |psi|^2 = 1.000
==== e(   4) =   -44.32075 eV ==== 
     psi = 0.332*[#   2]+0.332*[#   3]+0.332*[#   4]+0.002*[#  10]
    |psi|^2 = 1.000
==== e(   5) =   -44.30528 eV ==== 
     psi = 0.330*[#   2]+0.330*[#   3]+0.330*[#   4]+0.003*[#  11]+0.003*[#  12]
          +0.003*[#  13]
    |psi|^2 = 1.000
==== e(   6) =   -41.45742 eV ==== 
     psi = 0.331*[#  15]+0.331*[#  16]+0.331*[#  17]+0.002*[#  11]+0.002*[#  12]
          +0.002*[#  13]
    |psi|^2 = 1.000
==== e(   7) =   -41.42580 eV ==== 
     psi = 0.332*[#  15]+0.332*[#  16]+0.332*[#  17]+0.002*[#  23]
    |psi|^2 = 1.000
==== e(   8) =   -41.40759 eV ==== 
     psi = 0.331*[#  15]+0.331*[#  16]+0.331*[#  17]+0.002*[#  24]+0.002*[#  25]
          +0.002*[#  26]
    |psi|^2 = 1.000
==== e(   9) =    -4.97216 eV ==== 
     psi = 0.309*[#  27]+0.309*[#  31]+0.103*[#  10]+0.100*[#  23]+0.027*[#  11]
          +0.027*[#  12]+0.027*[#  13]+0.027*[#  24]+0.027*[#  25]+0.027*[#  26]
          +0.005*[#  14]+0.005*[#   1]
    |psi|^2 = 1.000
==== e(  10) =    -4.04652 eV ==== 
     psi = 0.347*[#  27]+0.347*[#  31]+0.048*[#  11]+0.048*[#  12]+0.048*[#  13]
          +0.048*[#  24]+0.048*[#  25]+0.048*[#  26]+0.004*[#   5]+0.004*[#   8]
          +0.003*[#  18]+0.003*[#  21]
    |psi|^2 = 1.000
==== e(  11) =     6.89975 eV ==== 
     psi = 0.118*[#  10]+0.115*[#  23]+0.095*[#  28]+0.095*[#  29]+0.095*[#  30]
          +0.095*[#  32]+0.095*[#  33]+0.095*[#  34]+0.018*[#   6]+0.018*[#   7]
          +0.018*[#   9]+0.016*[#  11]+0.016*[#  12]+0.016*[#  13]+0.016*[#  24]
          +0.016*[#  25]+0.016*[#  26]+0.010*[#  19]+0.010*[#  20]+0.010*[#  22]
          +0.005*[#  14]+0.004*[#   1]+0.002*[#   5]+0.002*[#   8]
    |psi|^2 = 1.000
==== e(  12) =     9.77866 eV ==== 
     psi = 0.156*[#   5]+0.156*[#   8]+0.092*[#  28]+0.092*[#  29]+0.092*[#  30]
          +0.092*[#  32]+0.092*[#  33]+0.092*[#  34]+0.014*[#   6]+0.014*[#   7]
          +0.014*[#   9]+0.010*[#  24]+0.010*[#  25]+0.010*[#  26]+0.008*[#  11]
          +0.008*[#  12]+0.008*[#  13]+0.006*[#  19]+0.006*[#  20]+0.006*[#  22]
          +0.003*[#  18]+0.003*[#  21]+0.003*[#  27]+0.003*[#  31]+0.003*[#  23]
          
    |psi|^2 = 0.998
==== e(  13) =    10.32872 eV ==== 
     psi = 0.115*[#  28]+0.115*[#  29]+0.115*[#  30]+0.115*[#  32]+0.115*[#  33]
          +0.115*[#  34]+0.070*[#  18]+0.070*[#  21]+0.019*[#   6]+0.019*[#   7]
          +0.019*[#   9]+0.019*[#  10]+0.013*[#  27]+0.013*[#  31]+0.013*[#   5]
          +0.013*[#   8]+0.008*[#  23]+0.006*[#  11]+0.006*[#  12]+0.006*[#  13]
          +0.003*[#  24]+0.003*[#  25]+0.003*[#  26]
    |psi|^2 = 0.996
==== e(  14) =    10.36021 eV ==== 
     psi = 0.180*[#   5]+0.180*[#   8]+0.089*[#  28]+0.089*[#  29]+0.089*[#  30]
          +0.089*[#  32]+0.089*[#  33]+0.089*[#  34]+0.037*[#  18]+0.037*[#  21]
          +0.005*[#   6]+0.005*[#   7]+0.005*[#   9]+0.002*[#  19]+0.002*[#  20]
          +0.002*[#  22]+0.002*[#  24]+0.002*[#  25]+0.002*[#  26]+0.002*[#  11]
          +0.002*[#  12]+0.002*[#  13]
    |psi|^2 = 0.999
==== e(  15) =    11.03914 eV ==== 
     psi = 0.127*[#  28]+0.127*[#  29]+0.127*[#  30]+0.127*[#  32]+0.127*[#  33]
          +0.127*[#  34]+0.032*[#   6]+0.032*[#   7]+0.032*[#   9]+0.016*[#  19]
          +0.016*[#  20]+0.016*[#  22]+0.015*[#  10]+0.013*[#  23]+0.011*[#  27]
          +0.011*[#  31]+0.007*[#  11]+0.007*[#  12]+0.007*[#  13]+0.005*[#  18]
          +0.005*[#  21]+0.004*[#  24]+0.004*[#  25]+0.004*[#  26]
    |psi|^2 = 0.997
==== e(  16) =    11.87592 eV ==== 
     psi = 0.108*[#  28]+0.108*[#  29]+0.108*[#  30]+0.108*[#  32]+0.108*[#  33]
          +0.108*[#  34]+0.075*[#   6]+0.075*[#   7]+0.075*[#   9]+0.023*[#   5]
          +0.023*[#   8]+0.020*[#  18]+0.020*[#  21]+0.008*[#  19]+0.008*[#  20]
          +0.008*[#  22]+0.003*[#  11]+0.003*[#  12]+0.003*[#  13]+0.002*[#  24]
          +0.002*[#  25]+0.002*[#  26]
    |psi|^2 = 0.997
==== e(  17) =    12.37307 eV ==== 
     psi = 0.285*[#   6]+0.285*[#   7]+0.285*[#   9]+0.025*[#  19]+0.025*[#  20]
          +0.025*[#  22]+0.015*[#  23]+0.005*[#  28]+0.005*[#  29]+0.005*[#  30]
          +0.005*[#  32]+0.005*[#  33]+0.005*[#  34]+0.003*[#  27]+0.003*[#  31]
          +0.002*[#  10]+0.002*[#  18]+0.002*[#  21]+0.001*[#  24]+0.001*[#  25]
          +0.001*[#  26]
    |psi|^2 = 0.993
==== e(  18) =    13.09480 eV ==== 
     psi = 0.256*[#   6]+0.256*[#   7]+0.256*[#   9]+0.023*[#  28]+0.023*[#  29]
          +0.023*[#  30]+0.023*[#  32]+0.023*[#  33]+0.023*[#  34]+0.012*[#  23]
          +0.010*[#   5]+0.010*[#   8]+0.009*[#  27]+0.009*[#  31]+0.006*[#  10]
          +0.006*[#  18]+0.006*[#  21]+0.004*[#  19]+0.004*[#  20]+0.004*[#  22]
          +0.002*[#  24]+0.002*[#  25]+0.002*[#  26]+0.001*[#  11]+0.001*[#  12]
          +0.001*[#  13]
    |psi|^2 = 0.997
==== e(  19) =    13.27988 eV ==== 
     psi = 0.234*[#   6]+0.234*[#   7]+0.234*[#   9]+0.041*[#  18]+0.041*[#  21]
          +0.028*[#  28]+0.028*[#  29]+0.028*[#  30]+0.028*[#  32]+0.028*[#  33]
          +0.028*[#  34]+0.023*[#   5]+0.023*[#   8]
    |psi|^2 = 0.998
==== e(  20) =    13.97856 eV ==== 
     psi = 0.229*[#   5]+0.229*[#   8]+0.067*[#  18]+0.067*[#  21]+0.040*[#  28]
          +0.040*[#  29]+0.040*[#  30]+0.040*[#  32]+0.040*[#  33]+0.040*[#  34]
          +0.033*[#  19]+0.033*[#  20]+0.033*[#  22]+0.019*[#   6]+0.019*[#   7]
          +0.019*[#   9]+0.003*[#  24]+0.003*[#  25]+0.003*[#  26]
    |psi|^2 = 0.997
==== e(  21) =    14.14608 eV ==== 
     psi = 0.253*[#   5]+0.253*[#   8]+0.066*[#  19]+0.066*[#  20]+0.066*[#  22]
          +0.034*[#  28]+0.034*[#  29]+0.034*[#  30]+0.034*[#  32]+0.034*[#  33]
          +0.034*[#  34]+0.012*[#  27]+0.012*[#  31]+0.011*[#  23]+0.005*[#   6]
          +0.005*[#   7]+0.005*[#   9]+0.006*[#  24]+0.006*[#  25]+0.006*[#  26]
          +0.005*[#  18]+0.005*[#  21]+0.003*[#  10]
    |psi|^2 = 0.995
==== e(  22) =    14.79791 eV ==== 
     psi = 0.256*[#  19]+0.256*[#  20]+0.256*[#  22]+0.027*[#   5]+0.027*[#   8]
          +0.018*[#   6]+0.018*[#   7]+0.018*[#   9]+0.016*[#  28]+0.016*[#  29]
          +0.016*[#  30]+0.016*[#  32]+0.016*[#  33]+0.016*[#  34]+0.007*[#  10]
          +0.002*[#  24]+0.002*[#  25]+0.002*[#  26]+0.001*[#  27]+0.001*[#  31]
          
    |psi|^2 = 0.991
==== e(  23) =    15.20750 eV ==== 
     psi = 0.249*[#  19]+0.249*[#  20]+0.249*[#  22]+0.023*[#   5]+0.023*[#   8]
          +0.017*[#  28]+0.017*[#  29]+0.017*[#  30]+0.017*[#  32]+0.017*[#  33]
          +0.017*[#  34]+0.013*[#  18]+0.013*[#  21]+0.010*[#  27]+0.010*[#  31]
          +0.010*[#  10]+0.007*[#   6]+0.007*[#   7]+0.007*[#   9]+0.007*[#  23]
          +0.002*[#  24]+0.002*[#  25]+0.002*[#  26]+0.002*[#  11]+0.002*[#  12]
          +0.002*[#  13]
    |psi|^2 = 0.993
==== e(  24) =    15.41031 eV ==== 
     psi = 0.287*[#  19]+0.287*[#  20]+0.287*[#  22]+0.016*[#  28]+0.016*[#  29]
          +0.016*[#  30]+0.016*[#  32]+0.016*[#  33]+0.016*[#  34]+0.011*[#   5]
          +0.011*[#   8]+0.008*[#  18]+0.008*[#  21]
    |psi|^2 = 0.996
==== e(  25) =    16.71191 eV ==== 
     psi = 0.373*[#  18]+0.373*[#  21]+0.023*[#  28]+0.023*[#  29]+0.023*[#  30]
          +0.023*[#  32]+0.023*[#  33]+0.023*[#  34]+0.022*[#  10]+0.021*[#  27]
          +0.021*[#  31]+0.008*[#   5]+0.008*[#   8]+0.004*[#  11]+0.004*[#  12]
          +0.004*[#  13]+0.004*[#  19]+0.004*[#  20]+0.004*[#  22]+0.002*[#  23]
          +0.001*[#   6]+0.001*[#   7]+0.001*[#   9]+0.001*[#  24]+0.001*[#  25]
          +0.001*[#  26]
    |psi|^2 = 0.997
==== e(  26) =    17.18983 eV ==== 
     psi = 0.326*[#  18]+0.326*[#  21]+0.045*[#  28]+0.045*[#  29]+0.045*[#  30]
          +0.045*[#  32]+0.045*[#  33]+0.045*[#  34]+0.034*[#   5]+0.034*[#   8]
          +0.001*[#  11]+0.001*[#  12]+0.001*[#  13]
    |psi|^2 = 0.998
==== e(  27) =    18.96588 eV ==== 
     psi = 0.149*[#  10]+0.131*[#  23]+0.127*[#  27]+0.127*[#  31]+0.032*[#  28]
          +0.032*[#  29]+0.032*[#  30]+0.032*[#  32]+0.032*[#  33]+0.032*[#  34]
          +0.032*[#  11]+0.032*[#  12]+0.032*[#  13]+0.026*[#  24]+0.026*[#  25]
          +0.026*[#  26]+0.014*[#  19]+0.014*[#  20]+0.014*[#  22]+0.014*[#  18]
          +0.014*[#  21]+0.005*[#   6]+0.005*[#   7]+0.005*[#   9]+0.004*[#  14]
          +0.003*[#   1]+0.002*[#   5]+0.002*[#   8]
    |psi|^2 = 0.993
==== e(  28) =    23.70147 eV ==== 
     psi = 0.101*[#  23]+0.091*[#  10]+0.074*[#  27]+0.074*[#  31]+0.068*[#  11]
          +0.068*[#  12]+0.068*[#  13]+0.065*[#  24]+0.065*[#  25]+0.065*[#  26]
          +0.031*[#  28]+0.031*[#  29]+0.031*[#  30]+0.031*[#  32]+0.031*[#  33]
          +0.031*[#  34]+0.003*[#  19]+0.003*[#  20]+0.003*[#  22]+0.003*[#  18]
          +0.003*[#  21]+0.002*[#   6]+0.002*[#   7]+0.002*[#   9]+0.001*[#   5]
          +0.001*[#   8]
    |psi|^2 = 0.951
==== e(  29) =    24.12750 eV ==== 
     psi = 0.181*[#  23]+0.162*[#  10]+0.052*[#  24]+0.052*[#  25]+0.052*[#  26]
          +0.051*[#  11]+0.051*[#  12]+0.051*[#  13]+0.038*[#  27]+0.038*[#  31]
          +0.035*[#  28]+0.035*[#  29]+0.035*[#  30]+0.035*[#  32]+0.035*[#  33]
          +0.035*[#  34]+0.003*[#  19]+0.003*[#  20]+0.003*[#  22]+0.001*[#   6]
          +0.001*[#   7]+0.001*[#   9]
    |psi|^2 = 0.958
==== e(  30) =    29.83537 eV ==== 
     psi = 0.127*[#  11]+0.127*[#  12]+0.127*[#  13]+0.124*[#  10]+0.088*[#  24]
          +0.088*[#  25]+0.088*[#  26]+0.072*[#  23]+0.007*[#   1]+0.004*[#  28]
          +0.004*[#  29]+0.004*[#  30]+0.004*[#  32]+0.004*[#  33]+0.004*[#  34]
          +0.003*[#  14]+0.001*[#  19]+0.001*[#  20]+0.001*[#  22]+0.001*[#   6]
          +0.001*[#   7]+0.001*[#   9]+0.001*[#  27]+0.001*[#  31]
    |psi|^2 = 0.888
==== e(  31) =    30.45946 eV ==== 
     psi = 0.052*[#  23]+0.034*[#  24]+0.034*[#  25]+0.034*[#  26]+0.026*[#  10]
          +0.018*[#  11]+0.018*[#  12]+0.018*[#  13]+0.004*[#  14]+0.003*[#  19]
          +0.003*[#  20]+0.003*[#  22]+0.002*[#   1]
    |psi|^2 = 0.259
==== e(  32) =    32.19856 eV ==== 
     psi = 0.052*[#  23]+0.035*[#  10]+0.028*[#  24]+0.028*[#  25]+0.028*[#  26]
          +0.015*[#  11]+0.015*[#  12]+0.015*[#  13]+0.003*[#  19]+0.003*[#  20]
          +0.003*[#  22]+0.003*[#  14]+0.002*[#   1]+0.001*[#  28]+0.001*[#  29]
          +0.001*[#  30]+0.001*[#  32]+0.001*[#  33]+0.001*[#  34]
    |psi|^2 = 0.242
==== e(  33) =    33.00011 eV ==== 
     psi = 0.176*[#  11]+0.176*[#  12]+0.176*[#  13]+0.121*[#  24]+0.121*[#  25]
          +0.121*[#  26]+0.003*[#  28]+0.003*[#  29]+0.003*[#  30]+0.003*[#  32]
          +0.003*[#  33]+0.003*[#  34]+0.001*[#   2]+0.001*[#   3]+0.001*[#   4]
          
    |psi|^2 = 0.914
==== e(  34) =    33.93047 eV ==== 
     psi = 0.115*[#  24]+0.115*[#  25]+0.115*[#  26]+0.113*[#  11]+0.113*[#  12]
          +0.113*[#  13]+0.015*[#  23]+0.013*[#  10]+0.005*[#  28]+0.005*[#  29]
          +0.005*[#  30]+0.005*[#  32]+0.005*[#  33]+0.005*[#  34]+0.001*[#   1]
          +0.001*[#  14]+0.001*[#  18]+0.001*[#  21]
    |psi|^2 = 0.752
==== e(  35) =    34.81468 eV ==== 
     psi = 0.125*[#  24]+0.125*[#  25]+0.125*[#  26]+0.081*[#  11]+0.081*[#  12]
          +0.081*[#  13]+0.002*[#  28]+0.002*[#  29]+0.002*[#  30]+0.002*[#  32]
          +0.002*[#  33]+0.002*[#  34]+0.001*[#  19]+0.001*[#  20]+0.001*[#  22]
          +0.001*[#  15]+0.001*[#  16]+0.001*[#  17]
    |psi|^2 = 0.643
==== e(  36) =    36.87860 eV ==== 
     psi = 0.065*[#  23]+0.061*[#  10]+0.059*[#  11]+0.059*[#  12]+0.059*[#  13]
          +0.048*[#  24]+0.048*[#  25]+0.048*[#  26]+0.006*[#   1]+0.006*[#  14]
          +0.002*[#  28]+0.002*[#  29]+0.002*[#  30]+0.002*[#  32]+0.002*[#  33]
          +0.002*[#  34]+0.001*[#  27]+0.001*[#  31]
    |psi|^2 = 0.476
==== e(  37) =    37.63166 eV ==== 
     psi = 0.019*[#  24]+0.019*[#  25]+0.019*[#  26]+0.008*[#  27]+0.008*[#  31]
          +0.007*[#  23]+0.002*[#  11]+0.002*[#  12]+0.002*[#  13]
    |psi|^2 = 0.092
==== e(  38) =    40.40487 eV ==== 
     psi = 0.009*[#  24]+0.009*[#  25]+0.009*[#  26]+0.005*[#  11]+0.005*[#  12]
          +0.005*[#  13]
    |psi|^2 = 0.044
==== e(  39) =    40.89237 eV ==== 
     psi = 0.025*[#  24]+0.025*[#  25]+0.025*[#  26]+0.021*[#  11]+0.021*[#  12]
          +0.021*[#  13]
    |psi|^2 = 0.142
==== e(  40) =    42.22233 eV ==== 
     psi = 0.011*[#  24]+0.011*[#  25]+0.011*[#  26]+0.010*[#  11]+0.010*[#  12]
          +0.010*[#  13]+0.002*[#  27]+0.002*[#  28]+0.002*[#  29]+0.002*[#  30]
          +0.002*[#  31]+0.002*[#  32]+0.002*[#  33]+0.002*[#  34]
    |psi|^2 = 0.077

 k =   0.5338435427 -0.1902070515 -0.1902070515
==== e(   1) =   -80.98127 eV ==== 
     psi = 0.971*[#   1]+0.006*[#  11]+0.006*[#  12]+0.006*[#  13]+0.003*[#  10]
          +0.001*[#  24]+0.001*[#  25]+0.001*[#  26]
    |psi|^2 = 1.000
==== e(   2) =   -77.91735 eV ==== 
     psi = 0.971*[#  14]+0.006*[#  24]+0.006*[#  25]+0.006*[#  26]+0.003*[#  23]
          +0.001*[#  11]+0.001*[#  12]+0.001*[#  13]
    |psi|^2 = 1.000
==== e(   3) =   -44.48423 eV ==== 
     psi = 0.332*[#   2]+0.332*[#   3]+0.332*[#   4]
    |psi|^2 = 1.000
==== e(   4) =   -44.36200 eV ==== 
     psi = 0.332*[#   2]+0.332*[#   3]+0.332*[#   4]
    |psi|^2 = 1.000
==== e(   5) =   -44.31557 eV ==== 
     psi = 0.331*[#   2]+0.331*[#   3]+0.331*[#   4]+0.002*[#  11]+0.002*[#  12]
          +0.002*[#  13]
    |psi|^2 = 1.000
==== e(   6) =   -41.47404 eV ==== 
     psi = 0.331*[#  15]+0.331*[#  16]+0.331*[#  17]
    |psi|^2 = 1.000
==== e(   7) =   -41.45047 eV ==== 
     psi = 0.332*[#  15]+0.332*[#  16]+0.332*[#  17]
    |psi|^2 = 1.000
==== e(   8) =   -41.41948 eV ==== 
     psi = 0.331*[#  15]+0.331*[#  16]+0.331*[#  17]+0.001*[#  24]+0.001*[#  25]
          +0.001*[#  26]
    |psi|^2 = 1.000
==== e(   9) =    -4.17530 eV ==== 
     psi = 0.345*[#  27]+0.345*[#  31]+0.037*[#  10]+0.036*[#  24]+0.036*[#  25]
          +0.036*[#  26]+0.036*[#  11]+0.036*[#  12]+0.036*[#  13]+0.035*[#  23]
          +0.003*[#   5]+0.003*[#   8]+0.003*[#   1]+0.003*[#  14]+0.002*[#  18]
          +0.002*[#  21]
    |psi|^2 = 1.000
==== e(  10) =    -3.73008 eV ==== 
     psi = 0.394*[#  27]+0.394*[#  31]+0.029*[#  11]+0.029*[#  12]+0.029*[#  13]
          +0.028*[#  24]+0.028*[#  25]+0.028*[#  26]+0.010*[#   5]+0.010*[#   8]
          +0.009*[#  18]+0.009*[#  21]
    |psi|^2 = 0.999
==== e(  11) =     8.01709 eV ==== 
     psi = 0.099*[#  28]+0.099*[#  29]+0.099*[#  30]+0.099*[#  32]+0.099*[#  33]
          +0.099*[#  34]+0.081*[#  23]+0.047*[#   5]+0.047*[#   8]+0.044*[#  10]
          +0.020*[#  24]+0.020*[#  25]+0.020*[#  26]+0.015*[#   6]+0.015*[#   7]
          +0.015*[#   9]+0.013*[#  11]+0.013*[#  12]+0.013*[#  13]+0.008*[#  19]
          +0.008*[#  20]+0.008*[#  22]+0.004*[#  18]+0.004*[#  21]+0.003*[#  14]
          +0.002*[#  27]+0.002*[#  31]
    |psi|^2 = 0.999
==== e(  12) =     8.28759 eV ==== 
     psi = 0.104*[#  28]+0.104*[#  29]+0.104*[#  30]+0.104*[#  32]+0.104*[#  33]
          +0.104*[#  34]+0.069*[#  10]+0.030*[#  18]+0.030*[#  21]+0.024*[#   5]
          +0.024*[#   8]+0.021*[#  27]+0.021*[#  31]+0.021*[#   6]+0.021*[#   7]
          +0.021*[#   9]+0.010*[#  23]+0.010*[#  11]+0.010*[#  12]+0.010*[#  13]
          +0.010*[#  24]+0.010*[#  25]+0.010*[#  26]+0.006*[#  19]+0.006*[#  20]
          +0.006*[#  22]+0.003*[#   1]+0.001*[#  14]
    |psi|^2 = 0.998
==== e(  13) =     8.76546 eV ==== 
     psi = 0.107*[#  28]+0.107*[#  29]+0.107*[#  30]+0.107*[#  32]+0.107*[#  33]
          +0.107*[#  34]+0.043*[#  11]+0.043*[#  12]+0.043*[#  13]+0.034*[#  24]
          +0.034*[#  25]+0.034*[#  26]+0.022*[#   6]+0.022*[#   7]+0.022*[#   9]
          +0.013*[#  19]+0.013*[#  20]+0.013*[#  22]+0.004*[#   5]+0.004*[#   8]
          +0.002*[#  27]+0.002*[#  31]+0.002*[#  23]
    |psi|^2 = 0.999
==== e(  14) =     9.81394 eV ==== 
     psi = 0.110*[#  28]+0.110*[#  29]+0.110*[#  30]+0.110*[#  32]+0.110*[#  33]
          +0.110*[#  34]+0.056*[#   5]+0.056*[#   8]+0.032*[#  18]+0.032*[#  21]
          +0.022*[#  23]+0.014*[#   6]+0.014*[#   7]+0.014*[#   9]+0.013*[#  19]
          +0.013*[#  20]+0.013*[#  22]+0.009*[#  11]+0.009*[#  12]+0.009*[#  13]
          +0.006*[#  10]+0.005*[#  24]+0.005*[#  25]+0.005*[#  26]+0.003*[#  27]
          +0.003*[#  31]
    |psi|^2 = 0.997
==== e(  15) =    10.35135 eV ==== 
     psi = 0.183*[#   5]+0.183*[#   8]+0.094*[#  28]+0.094*[#  29]+0.094*[#  30]
          +0.094*[#  32]+0.094*[#  33]+0.094*[#  34]+0.016*[#  18]+0.016*[#  21]
          +0.006*[#  24]+0.006*[#  25]+0.006*[#  26]+0.005*[#   6]+0.005*[#   7]
          +0.005*[#   9]+0.001*[#  11]+0.001*[#  12]+0.001*[#  13]
    |psi|^2 = 0.999
==== e(  16) =    11.15067 eV ==== 
     psi = 0.120*[#  28]+0.120*[#  29]+0.120*[#  30]+0.120*[#  32]+0.120*[#  33]
          +0.120*[#  34]+0.061*[#  18]+0.061*[#  21]+0.027*[#   6]+0.027*[#   7]
          +0.027*[#   9]+0.010*[#  19]+0.010*[#  20]+0.010*[#  22]+0.009*[#  11]
          +0.009*[#  12]+0.009*[#  13]+0.007*[#   5]+0.007*[#   8]
    |psi|^2 = 0.998
==== e(  17) =    12.28524 eV ==== 
     psi = 0.298*[#   6]+0.298*[#   7]+0.298*[#   9]+0.010*[#  28]+0.010*[#  29]
          +0.010*[#  30]+0.010*[#  32]+0.010*[#  33]+0.010*[#  34]+0.009*[#  19]
          +0.009*[#  20]+0.009*[#  22]+0.004*[#   5]+0.004*[#   8]+0.002*[#  23]
          
    |psi|^2 = 0.992
==== e(  18) =    13.51425 eV ==== 
     psi = 0.274*[#   6]+0.274*[#   7]+0.274*[#   9]+0.054*[#   5]+0.054*[#   8]
          +0.016*[#  18]+0.016*[#  21]+0.006*[#  28]+0.006*[#  29]+0.006*[#  30]
          +0.006*[#  32]+0.006*[#  33]+0.006*[#  34]
    |psi|^2 = 0.999
==== e(  19) =    13.66624 eV ==== 
     psi = 0.270*[#   6]+0.270*[#   7]+0.270*[#   9]+0.018*[#  28]+0.018*[#  29]
          +0.018*[#  30]+0.018*[#  32]+0.018*[#  33]+0.018*[#  34]+0.010*[#   5]
          +0.010*[#   8]+0.007*[#  24]+0.007*[#  25]+0.007*[#  26]+0.006*[#  27]
          +0.006*[#  31]+0.006*[#  23]+0.005*[#  19]+0.005*[#  20]+0.005*[#  22]
          +0.003*[#  10]
    |psi|^2 = 0.998
==== e(  20) =    14.13990 eV ==== 
     psi = 0.158*[#  19]+0.158*[#  20]+0.158*[#  22]+0.150*[#   5]+0.150*[#   8]
          +0.018*[#  28]+0.018*[#  29]+0.018*[#  30]+0.018*[#  32]+0.018*[#  33]
          +0.018*[#  34]+0.016*[#  18]+0.016*[#  21]+0.013*[#  27]+0.013*[#  31]
          +0.011*[#   6]+0.011*[#   7]+0.011*[#   9]+0.007*[#  23]+0.003*[#  24]
          +0.003*[#  25]+0.003*[#  26]
    |psi|^2 = 0.989
==== e(  21) =    14.48292 eV ==== 
     psi = 0.176*[#   5]+0.176*[#   8]+0.135*[#  19]+0.135*[#  20]+0.135*[#  22]
          +0.023*[#  28]+0.023*[#  29]+0.023*[#  30]+0.023*[#  32]+0.023*[#  33]
          +0.023*[#  34]+0.018*[#  18]+0.018*[#  21]+0.012*[#  27]+0.012*[#  31]
          +0.010*[#  23]+0.006*[#  10]+0.004*[#   6]+0.004*[#   7]+0.004*[#   9]
          +0.002*[#  24]+0.002*[#  25]+0.002*[#  26]
    |psi|^2 = 0.992
==== e(  22) =    14.51470 eV ==== 
     psi = 0.232*[#   5]+0.232*[#   8]+0.053*[#  28]+0.053*[#  29]+0.053*[#  30]
          +0.053*[#  32]+0.053*[#  33]+0.053*[#  34]+0.026*[#  18]+0.026*[#  21]
          +0.025*[#   6]+0.025*[#   7]+0.025*[#   9]+0.023*[#  19]+0.023*[#  20]
          +0.023*[#  22]+0.007*[#  24]+0.007*[#  25]+0.007*[#  26]
    |psi|^2 = 0.999
==== e(  23) =    15.77548 eV ==== 
     psi = 0.293*[#  19]+0.293*[#  20]+0.293*[#  22]+0.012*[#  28]+0.012*[#  29]
          +0.012*[#  30]+0.012*[#  32]+0.012*[#  33]+0.012*[#  34]+0.005*[#  27]
          +0.005*[#  31]+0.003*[#  10]+0.003*[#  24]+0.003*[#  25]+0.003*[#  26]
          +0.003*[#  11]+0.003*[#  12]+0.003*[#  13]+0.002*[#  18]+0.002*[#  21]
          +0.001*[#   6]+0.001*[#   7]+0.001*[#   9]
    |psi|^2 = 0.996
==== e(  24) =    15.87377 eV ==== 
     psi = 0.295*[#  19]+0.295*[#  20]+0.295*[#  22]+0.014*[#  28]+0.014*[#  29]
          +0.014*[#  30]+0.014*[#  32]+0.014*[#  33]+0.014*[#  34]+0.010*[#   5]
          +0.010*[#   8]+0.002*[#  18]+0.002*[#  21]+0.002*[#   6]+0.002*[#   7]
          +0.002*[#   9]
    |psi|^2 = 0.998
==== e(  25) =    16.89711 eV ==== 
     psi = 0.361*[#  18]+0.361*[#  21]+0.033*[#  27]+0.033*[#  31]+0.026*[#  10]
          +0.020*[#  28]+0.020*[#  29]+0.020*[#  30]+0.020*[#  32]+0.020*[#  33]
          +0.020*[#  34]+0.010*[#  11]+0.010*[#  12]+0.010*[#  13]+0.007*[#   5]
          +0.007*[#   8]+0.003*[#  19]+0.003*[#  20]+0.003*[#  22]+0.002*[#  24]
          +0.002*[#  25]+0.002*[#  26]+0.001*[#  23]
    |psi|^2 = 0.998
==== e(  26) =    17.05940 eV ==== 
     psi = 0.376*[#  18]+0.376*[#  21]+0.033*[#  28]+0.033*[#  29]+0.033*[#  30]
          +0.033*[#  32]+0.033*[#  33]+0.033*[#  34]+0.013*[#   5]+0.013*[#   8]
          +0.004*[#  11]+0.004*[#  12]+0.004*[#  13]+0.002*[#  19]+0.002*[#  20]
          +0.002*[#  22]
    |psi|^2 = 0.998
==== e(  27) =    21.24378 eV ==== 
     psi = 0.083*[#  27]+0.083*[#  31]+0.078*[#  10]+0.062*[#  23]+0.060*[#  11]
          +0.060*[#  12]+0.060*[#  13]+0.055*[#  24]+0.055*[#  25]+0.055*[#  26]
          +0.044*[#  28]+0.044*[#  29]+0.044*[#  30]+0.044*[#  32]+0.044*[#  33]
          +0.044*[#  34]+0.019*[#  18]+0.019*[#  21]+0.006*[#   5]+0.006*[#   8]
          +0.004*[#  19]+0.004*[#  20]+0.004*[#  22]+0.003*[#  14]+0.002*[#   1]
          +0.002*[#   6]+0.002*[#   7]+0.002*[#   9]
    |psi|^2 = 0.984
==== e(  28) =    23.54923 eV ==== 
     psi = 0.185*[#  10]+0.184*[#  23]+0.056*[#  24]+0.056*[#  25]+0.056*[#  26]
          +0.045*[#  28]+0.045*[#  29]+0.045*[#  30]+0.045*[#  32]+0.045*[#  33]
          +0.045*[#  34]+0.042*[#  11]+0.042*[#  12]+0.042*[#  13]+0.004*[#  19]
          +0.004*[#  20]+0.004*[#  22]+0.004*[#  27]+0.004*[#  31]+0.004*[#  18]
          +0.004*[#  21]+0.002*[#   6]+0.002*[#   7]+0.002*[#   9]+0.002*[#   5]
          +0.002*[#   8]
    |psi|^2 = 0.973
==== e(  29) =    25.88737 eV ==== 
     psi = 0.174*[#  10]+0.107*[#  23]+0.092*[#  11]+0.092*[#  12]+0.092*[#  13]
          +0.077*[#  24]+0.077*[#  25]+0.077*[#  26]+0.053*[#  27]+0.053*[#  31]
          +0.005*[#   1]+0.002*[#  14]+0.002*[#  19]+0.002*[#  20]+0.002*[#  22]
          
    |psi|^2 = 0.915
==== e(  30) =    26.87475 eV ==== 
     psi = 0.282*[#  10]+0.111*[#  11]+0.111*[#  12]+0.111*[#  13]+0.033*[#  23]
          +0.024*[#  24]+0.024*[#  25]+0.024*[#  26]+0.019*[#  28]+0.019*[#  29]
          +0.019*[#  30]+0.019*[#  32]+0.019*[#  33]+0.019*[#  34]+0.009*[#   1]
          +0.005*[#  27]+0.005*[#  31]+0.004*[#   6]+0.004*[#   7]+0.004*[#   9]
          +0.002*[#  14]
    |psi|^2 = 0.870
==== e(  31) =    27.25888 eV ==== 
     psi = 0.359*[#  23]+0.099*[#  24]+0.099*[#  25]+0.099*[#  26]+0.022*[#  10]
          +0.016*[#  11]+0.016*[#  12]+0.016*[#  13]+0.016*[#  28]+0.016*[#  29]
          +0.016*[#  30]+0.016*[#  32]+0.016*[#  33]+0.016*[#  34]+0.010*[#  14]
          +0.008*[#  19]+0.008*[#  20]+0.008*[#  22]+0.003*[#  27]+0.003*[#  31]
          +0.002*[#   1]
    |psi|^2 = 0.866
==== e(  32) =    29.79181 eV ==== 
     psi = 0.066*[#  11]+0.066*[#  12]+0.066*[#  13]+0.064*[#  24]+0.064*[#  25]
          +0.064*[#  26]+0.026*[#  23]+0.022*[#  10]+0.002*[#  19]+0.002*[#  20]
          +0.002*[#  22]+0.002*[#  28]+0.002*[#  29]+0.002*[#  30]+0.002*[#  32]
          +0.002*[#  33]+0.002*[#  34]+0.001*[#  14]+0.001*[#   1]
    |psi|^2 = 0.462
==== e(  33) =    32.60106 eV ==== 
     psi = 0.282*[#  11]+0.282*[#  12]+0.282*[#  13]+0.009*[#  24]+0.009*[#  25]
          +0.009*[#  26]+0.006*[#  28]+0.006*[#  29]+0.006*[#  30]+0.006*[#  32]
          +0.006*[#  33]+0.006*[#  34]+0.002*[#   2]+0.002*[#   3]+0.002*[#   4]
          +0.001*[#  18]+0.001*[#  21]
    |psi|^2 = 0.921
==== e(  34) =    33.03413 eV ==== 
     psi = 0.081*[#  24]+0.081*[#  25]+0.081*[#  26]+0.073*[#  11]+0.073*[#  12]
          +0.073*[#  13]+0.014*[#  23]+0.011*[#  10]+0.008*[#  28]+0.008*[#  29]
          +0.008*[#  30]+0.008*[#  32]+0.008*[#  33]+0.008*[#  34]+0.001*[#  19]
          +0.001*[#  20]+0.001*[#  22]
    |psi|^2 = 0.541
==== e(  35) =    33.05377 eV ==== 
     psi = 0.285*[#  24]+0.285*[#  25]+0.285*[#  26]+0.014*[#  11]+0.014*[#  12]
          +0.014*[#  13]+0.006*[#  28]+0.006*[#  29]+0.006*[#  30]+0.006*[#  32]
          +0.006*[#  33]+0.006*[#  34]+0.002*[#  15]+0.002*[#  16]+0.002*[#  17]
          
    |psi|^2 = 0.944
==== e(  36) =    34.87173 eV ==== 
     psi = 0.014*[#  24]+0.014*[#  25]+0.014*[#  26]+0.013*[#  11]+0.013*[#  12]
          +0.013*[#  13]+0.009*[#  27]+0.009*[#  31]+0.002*[#  28]+0.002*[#  29]
          +0.002*[#  30]+0.002*[#  32]+0.002*[#  33]+0.002*[#  34]
    |psi|^2 = 0.116
==== e(  37) =    38.69847 eV ==== 
     psi = 0.018*[#  23]+0.018*[#  24]+0.018*[#  25]+0.018*[#  26]+0.015*[#  11]
          +0.015*[#  12]+0.015*[#  13]+0.015*[#  10]+0.002*[#  28]+0.002*[#  29]
          +0.002*[#  30]+0.002*[#  32]+0.002*[#  33]+0.002*[#  34]
    |psi|^2 = 0.147
==== e(  38) =    40.98249 eV ==== 
     psi = 0.001*[#  11]+0.001*[#  12]+0.001*[#  13]
    |psi|^2 = 0.009
==== e(  39) =    43.00868 eV ==== 

    |psi|^2 = 0.002
==== e(  40) =    43.07109 eV ==== 
     psi = 0.003*[#  11]+0.003*[#  12]+0.003*[#  13]+0.003*[#  24]+0.003*[#  25]
          +0.003*[#  26]+0.002*[#  23]+0.001*[#  10]+0.001*[#  28]+0.001*[#  29]
          +0.001*[#  30]+0.001*[#  32]+0.001*[#  33]+0.001*[#  34]
    |psi|^2 = 0.030

 k =  -0.8007653140  0.2853105772  0.2853105772
==== e(   1) =   -80.97892 eV ==== 
     psi = 0.988*[#   1]+0.004*[#  10]+0.001*[#  24]+0.001*[#  25]+0.001*[#  26]
          
    |psi|^2 = 1.000
==== e(   2) =   -77.91473 eV ==== 
     psi = 0.989*[#  14]+0.003*[#  23]+0.001*[#  11]+0.001*[#  12]+0.001*[#  13]
          
    |psi|^2 = 1.000
==== e(   3) =   -44.48063 eV ==== 
     psi = 0.332*[#   2]+0.332*[#   3]+0.332*[#   4]
    |psi|^2 = 1.000
==== e(   4) =   -44.38241 eV ==== 
     psi = 0.331*[#   2]+0.331*[#   3]+0.331*[#   4]+0.002*[#  11]+0.002*[#  12]
          +0.002*[#  13]
    |psi|^2 = 1.000
==== e(   5) =   -44.31994 eV ==== 
     psi = 0.331*[#   2]+0.331*[#   3]+0.331*[#   4]+0.002*[#  11]+0.002*[#  12]
          +0.002*[#  13]
    |psi|^2 = 1.000
==== e(   6) =   -41.49791 eV ==== 
     psi = 0.331*[#  15]+0.331*[#  16]+0.331*[#  17]+0.002*[#  24]+0.002*[#  25]
          +0.002*[#  26]
    |psi|^2 = 1.000
==== e(   7) =   -41.44641 eV ==== 
     psi = 0.332*[#  15]+0.332*[#  16]+0.332*[#  17]
    |psi|^2 = 1.000
==== e(   8) =   -41.42482 eV ==== 
     psi = 0.332*[#  15]+0.332*[#  16]+0.332*[#  17]+0.001*[#  24]+0.001*[#  25]
          +0.001*[#  26]
    |psi|^2 = 1.000
==== e(   9) =    -3.64347 eV ==== 
     psi = 0.400*[#  27]+0.400*[#  31]+0.047*[#  24]+0.047*[#  25]+0.047*[#  26]
          +0.019*[#   5]+0.019*[#   8]+0.016*[#  10]
    |psi|^2 = 1.000
==== e(  10) =    -3.62363 eV ==== 
     psi = 0.402*[#  27]+0.402*[#  31]+0.048*[#  11]+0.048*[#  12]+0.048*[#  13]
          +0.016*[#  18]+0.016*[#  21]+0.015*[#  23]
    |psi|^2 = 0.999
==== e(  11) =     7.59726 eV ==== 
     psi = 0.103*[#  28]+0.103*[#  29]+0.103*[#  30]+0.103*[#  32]+0.103*[#  33]
          +0.103*[#  34]+0.081*[#  10]+0.049*[#  24]+0.049*[#  25]+0.049*[#  26]
          +0.042*[#   6]+0.042*[#   7]+0.042*[#   9]+0.011*[#   5]+0.011*[#   8]
          +0.003*[#   1]+0.002*[#  27]+0.002*[#  31]
    |psi|^2 = 1.000
==== e(  12) =     7.77715 eV ==== 
     psi = 0.109*[#  28]+0.109*[#  29]+0.109*[#  30]+0.109*[#  32]+0.109*[#  33]
          +0.109*[#  34]+0.081*[#  23]+0.053*[#  11]+0.053*[#  12]+0.053*[#  13]
          +0.027*[#  19]+0.027*[#  20]+0.027*[#  22]+0.005*[#  18]+0.005*[#  21]
          +0.003*[#  14]+0.002*[#  27]+0.002*[#  31]
    |psi|^2 = 0.999
==== e(  13) =     8.83684 eV ==== 
     psi = 0.120*[#   5]+0.120*[#   8]+0.095*[#  28]+0.095*[#  29]+0.095*[#  30]
          +0.095*[#  32]+0.095*[#  33]+0.095*[#  34]+0.032*[#  10]+0.028*[#  24]
          +0.028*[#  25]+0.028*[#  26]+0.024*[#   6]+0.024*[#   7]+0.024*[#   9]
          
    |psi|^2 = 0.999
==== e(  14) =     9.28388 eV ==== 
     psi = 0.113*[#  28]+0.113*[#  29]+0.113*[#  30]+0.113*[#  32]+0.113*[#  33]
          +0.113*[#  34]+0.072*[#  18]+0.072*[#  21]+0.035*[#  23]+0.032*[#  11]
          +0.032*[#  12]+0.032*[#  13]+0.013*[#  19]+0.013*[#  20]+0.013*[#  22]
          
    |psi|^2 = 0.997
==== e(  15) =    10.27368 eV ==== 
     psi = 0.180*[#   5]+0.180*[#   8]+0.093*[#  28]+0.093*[#  29]+0.093*[#  30]
          +0.093*[#  32]+0.093*[#  33]+0.093*[#  34]+0.019*[#   6]+0.019*[#   7]
          +0.019*[#   9]+0.008*[#  24]+0.008*[#  25]+0.008*[#  26]
    |psi|^2 = 0.999
==== e(  16) =    10.93928 eV ==== 
     psi = 0.127*[#  28]+0.127*[#  29]+0.127*[#  30]+0.127*[#  32]+0.127*[#  33]
          +0.127*[#  34]+0.084*[#  18]+0.084*[#  21]+0.012*[#  19]+0.012*[#  20]
          +0.012*[#  22]+0.012*[#  11]+0.012*[#  12]+0.012*[#  13]
    |psi|^2 = 0.998
==== e(  17) =    12.20797 eV ==== 
     psi = 0.298*[#   6]+0.298*[#   7]+0.298*[#   9]+0.012*[#  28]+0.012*[#  29]
          +0.012*[#  30]+0.012*[#  32]+0.012*[#  33]+0.012*[#  34]+0.010*[#   5]
          +0.010*[#   8]+0.002*[#  27]+0.002*[#  31]
    |psi|^2 = 0.993
==== e(  18) =    13.67560 eV ==== 
     psi = 0.286*[#   6]+0.286*[#   7]+0.286*[#   9]+0.071*[#   5]+0.071*[#   8]
          
    |psi|^2 = 1.000
==== e(  19) =    13.96340 eV ==== 
     psi = 0.294*[#   6]+0.294*[#   7]+0.294*[#   9]+0.017*[#  28]+0.017*[#  29]
          +0.017*[#  30]+0.017*[#  32]+0.017*[#  33]+0.017*[#  34]+0.005*[#  10]
          +0.003*[#  24]+0.003*[#  25]+0.003*[#  26]+0.002*[#   5]+0.002*[#   8]
          
    |psi|^2 = 1.000
==== e(  20) =    14.05286 eV ==== 
     psi = 0.300*[#  19]+0.300*[#  20]+0.300*[#  22]+0.012*[#  28]+0.012*[#  29]
          +0.012*[#  30]+0.012*[#  32]+0.012*[#  33]+0.012*[#  34]+0.001*[#  18]
          +0.001*[#  21]
    |psi|^2 = 0.979
==== e(  21) =    14.67775 eV ==== 
     psi = 0.330*[#   5]+0.330*[#   8]+0.034*[#  28]+0.034*[#  29]+0.034*[#  30]
          +0.034*[#  32]+0.034*[#  33]+0.034*[#  34]+0.031*[#  27]+0.031*[#  31]
          +0.020*[#  24]+0.020*[#  25]+0.020*[#  26]+0.004*[#  10]+0.002*[#   6]
          +0.002*[#   7]+0.002*[#   9]
    |psi|^2 = 0.997
==== e(  22) =    14.78822 eV ==== 
     psi = 0.248*[#   5]+0.248*[#   8]+0.065*[#  28]+0.065*[#  29]+0.065*[#  30]
          +0.065*[#  32]+0.065*[#  33]+0.065*[#  34]+0.028*[#   6]+0.028*[#   7]
          +0.028*[#   9]+0.009*[#  24]+0.009*[#  25]+0.009*[#  26]
    |psi|^2 = 0.999
==== e(  23) =    16.04971 eV ==== 
     psi = 0.317*[#  19]+0.317*[#  20]+0.317*[#  22]+0.017*[#  18]+0.017*[#  21]
          +0.002*[#  28]+0.002*[#  29]+0.002*[#  30]+0.002*[#  32]+0.002*[#  33]
          +0.002*[#  34]
    |psi|^2 = 0.999
==== e(  24) =    16.21856 eV ==== 
     psi = 0.309*[#  19]+0.309*[#  20]+0.309*[#  22]+0.011*[#  28]+0.011*[#  29]
          +0.011*[#  30]+0.011*[#  32]+0.011*[#  33]+0.011*[#  34]+0.002*[#  11]
          +0.002*[#  12]+0.002*[#  13]
    |psi|^2 = 0.999
==== e(  25) =    17.00268 eV ==== 
     psi = 0.398*[#  18]+0.398*[#  21]+0.029*[#  28]+0.029*[#  29]+0.029*[#  30]
          +0.029*[#  32]+0.029*[#  33]+0.029*[#  34]+0.006*[#  11]+0.006*[#  12]
          +0.006*[#  13]+0.004*[#  19]+0.004*[#  20]+0.004*[#  22]
    |psi|^2 = 0.999
==== e(  26) =    17.06288 eV ==== 
     psi = 0.387*[#  18]+0.387*[#  21]+0.035*[#  27]+0.035*[#  31]+0.021*[#  11]
          +0.021*[#  12]+0.021*[#  13]+0.015*[#  28]+0.015*[#  29]+0.015*[#  30]
          +0.015*[#  32]+0.015*[#  33]+0.015*[#  34]+0.001*[#  23]
    |psi|^2 = 0.998
==== e(  27) =    23.07412 eV ==== 
     psi = 0.206*[#  24]+0.206*[#  25]+0.206*[#  26]+0.052*[#  27]+0.052*[#  31]
          +0.032*[#  28]+0.032*[#  29]+0.032*[#  30]+0.032*[#  32]+0.032*[#  33]
          +0.032*[#  34]+0.024*[#  10]+0.007*[#   5]+0.007*[#   8]
    |psi|^2 = 0.956
==== e(  28) =    23.11716 eV ==== 
     psi = 0.204*[#  11]+0.204*[#  12]+0.204*[#  13]+0.044*[#  27]+0.044*[#  31]
          +0.035*[#  28]+0.035*[#  29]+0.035*[#  30]+0.035*[#  32]+0.035*[#  33]
          +0.035*[#  34]+0.018*[#  18]+0.018*[#  21]+0.009*[#  23]+0.002*[#  19]
          +0.002*[#  20]+0.002*[#  22]
    |psi|^2 = 0.963
==== e(  29) =    24.30407 eV ==== 
     psi = 0.806*[#  10]+0.020*[#  24]+0.020*[#  25]+0.020*[#  26]+0.015*[#  28]
          +0.015*[#  29]+0.015*[#  30]+0.015*[#  32]+0.015*[#  33]+0.015*[#  34]
          +0.008*[#   1]+0.003*[#  27]+0.003*[#  31]+0.002*[#   6]+0.002*[#   7]
          +0.002*[#   9]
    |psi|^2 = 0.974
==== e(  30) =    24.82613 eV ==== 
     psi = 0.818*[#  23]+0.020*[#  11]+0.020*[#  12]+0.020*[#  13]+0.012*[#  28]
          +0.012*[#  29]+0.012*[#  30]+0.012*[#  32]+0.012*[#  33]+0.012*[#  34]
          +0.007*[#  14]+0.005*[#  27]+0.005*[#  31]+0.004*[#  19]+0.004*[#  20]
          +0.004*[#  22]
    |psi|^2 = 0.977
==== e(  31) =    28.15957 eV ==== 
     psi = 0.184*[#  24]+0.184*[#  25]+0.184*[#  26]+0.014*[#  28]+0.014*[#  29]
          +0.014*[#  30]+0.014*[#  32]+0.014*[#  33]+0.014*[#  34]+0.003*[#   6]
          +0.003*[#   7]+0.003*[#   9]+0.003*[#  27]+0.003*[#  31]
    |psi|^2 = 0.655
==== e(  32) =    28.31064 eV ==== 
     psi = 0.193*[#  11]+0.193*[#  12]+0.193*[#  13]+0.016*[#  28]+0.016*[#  29]
          +0.016*[#  30]+0.016*[#  32]+0.016*[#  33]+0.016*[#  34]+0.008*[#  19]
          +0.008*[#  20]+0.008*[#  22]+0.004*[#  23]+0.003*[#  27]+0.003*[#  31]
          
    |psi|^2 = 0.712
==== e(  33) =    31.96518 eV ==== 
     psi = 0.296*[#  11]+0.296*[#  12]+0.296*[#  13]+0.008*[#  28]+0.008*[#  29]
          +0.008*[#  30]+0.008*[#  32]+0.008*[#  33]+0.008*[#  34]+0.002*[#   2]
          +0.002*[#   3]+0.002*[#   4]+0.001*[#  18]+0.001*[#  21]
    |psi|^2 = 0.942
==== e(  34) =    32.33136 eV ==== 
     psi = 0.294*[#  24]+0.294*[#  25]+0.294*[#  26]+0.007*[#  28]+0.007*[#  29]
          +0.007*[#  30]+0.007*[#  32]+0.007*[#  33]+0.007*[#  34]+0.001*[#  15]
          +0.001*[#  16]+0.001*[#  17]
    |psi|^2 = 0.934
==== e(  35) =    33.84487 eV ==== 
     psi = 0.092*[#  24]+0.092*[#  25]+0.092*[#  26]+0.014*[#  10]+0.008*[#  28]
          +0.008*[#  29]+0.008*[#  30]+0.008*[#  32]+0.008*[#  33]+0.008*[#  34]
          +0.004*[#  27]+0.004*[#  31]
    |psi|^2 = 0.351
==== e(  36) =    33.90979 eV ==== 
     psi = 0.077*[#  11]+0.077*[#  12]+0.077*[#  13]+0.015*[#  23]+0.008*[#  28]
          +0.008*[#  29]+0.008*[#  30]+0.008*[#  32]+0.008*[#  33]+0.008*[#  34]
          +0.003*[#  27]+0.003*[#  31]+0.001*[#  19]+0.001*[#  20]+0.001*[#  22]
          
    |psi|^2 = 0.305
==== e(  37) =    41.69158 eV ==== 
     psi = 0.009*[#  10]+0.003*[#  24]+0.003*[#  25]+0.003*[#  26]
    |psi|^2 = 0.023
==== e(  38) =    41.82388 eV ==== 
     psi = 0.013*[#  23]+0.002*[#  11]+0.002*[#  12]+0.002*[#  13]
    |psi|^2 = 0.023
==== e(  39) =    43.72454 eV ==== 
     psi = 0.009*[#  24]+0.009*[#  25]+0.009*[#  26]
    |psi|^2 = 0.033
==== e(  40) =    43.95792 eV ==== 

    |psi|^2 = 0.006

 k =   0.1718182456  0.1718182456 -0.1902070515
==== e(   1) =   -80.98580 eV ==== 
     psi = 0.962*[#   1]+0.010*[#  11]+0.010*[#  12]+0.010*[#  13]+0.002*[#  24]
          +0.002*[#  25]+0.002*[#  26]
    |psi|^2 = 1.000
==== e(   2) =   -77.92255 eV ==== 
     psi = 0.961*[#  14]+0.010*[#  24]+0.010*[#  25]+0.010*[#  26]+0.002*[#  11]
          +0.002*[#  12]+0.002*[#  13]
    |psi|^2 = 1.000
==== e(   3) =   -44.48976 eV ==== 
     psi = 0.331*[#   2]+0.331*[#   3]+0.331*[#   4]+0.002*[#  24]+0.002*[#  25]
          +0.002*[#  26]
    |psi|^2 = 1.000
==== e(   4) =   -44.32063 eV ==== 
     psi = 0.332*[#   2]+0.332*[#   3]+0.332*[#   4]+0.002*[#  10]
    |psi|^2 = 1.000
==== e(   5) =   -44.30520 eV ==== 
     psi = 0.330*[#   2]+0.330*[#   3]+0.330*[#   4]+0.003*[#  11]+0.003*[#  12]
          +0.003*[#  13]
    |psi|^2 = 1.000
==== e(   6) =   -41.45740 eV ==== 
     psi = 0.331*[#  15]+0.331*[#  16]+0.331*[#  17]+0.002*[#  11]+0.002*[#  12]
          +0.002*[#  13]
    |psi|^2 = 1.000
==== e(   7) =   -41.42571 eV ==== 
     psi = 0.332*[#  15]+0.332*[#  16]+0.332*[#  17]+0.002*[#  23]
    |psi|^2 = 1.000
==== e(   8) =   -41.40751 eV ==== 
     psi = 0.331*[#  15]+0.331*[#  16]+0.331*[#  17]+0.002*[#  24]+0.002*[#  25]
          +0.002*[#  26]
    |psi|^2 = 1.000
==== e(   9) =    -4.94852 eV ==== 
     psi = 0.307*[#  27]+0.307*[#  31]+0.098*[#  10]+0.095*[#  23]+0.029*[#  11]
          +0.029*[#  12]+0.029*[#  13]+0.029*[#  24]+0.029*[#  25]+0.029*[#  26]
          +0.005*[#  14]+0.005*[#   1]
    |psi|^2 = 1.000
==== e(  10) =    -4.07726 eV ==== 
     psi = 0.346*[#  27]+0.346*[#  31]+0.047*[#  11]+0.047*[#  12]+0.047*[#  13]
          +0.047*[#  24]+0.047*[#  25]+0.047*[#  26]+0.004*[#   5]+0.004*[#   8]
          +0.003*[#  18]+0.003*[#  21]+0.003*[#  10]+0.003*[#  23]
    |psi|^2 = 1.000
==== e(  11) =     6.98277 eV ==== 
     psi = 0.114*[#  10]+0.110*[#  23]+0.095*[#  28]+0.095*[#  29]+0.095*[#  30]
          +0.095*[#  32]+0.095*[#  33]+0.095*[#  34]+0.018*[#   6]+0.018*[#   7]
          +0.018*[#   9]+0.018*[#  11]+0.018*[#  12]+0.018*[#  13]+0.017*[#  24]
          +0.017*[#  25]+0.017*[#  26]+0.010*[#  19]+0.010*[#  20]+0.010*[#  22]
          +0.005*[#  14]+0.004*[#   1]+0.002*[#  27]+0.002*[#  31]
    |psi|^2 = 1.000
==== e(  12) =     9.76661 eV ==== 
     psi = 0.157*[#   5]+0.157*[#   8]+0.091*[#  28]+0.091*[#  29]+0.091*[#  30]
          +0.091*[#  32]+0.091*[#  33]+0.091*[#  34]+0.019*[#   6]+0.019*[#   7]
          +0.019*[#   9]+0.012*[#  24]+0.012*[#  25]+0.012*[#  26]+0.008*[#  18]
          +0.008*[#  21]+0.005*[#  10]+0.003*[#  11]+0.003*[#  12]+0.003*[#  13]
          +0.003*[#  27]+0.003*[#  31]+0.002*[#  19]+0.002*[#  20]+0.002*[#  22]
          
    |psi|^2 = 0.998
==== e(  13) =    10.42391 eV ==== 
     psi = 0.123*[#  28]+0.123*[#  29]+0.123*[#  30]+0.123*[#  32]+0.123*[#  33]
          +0.123*[#  34]+0.058*[#  18]+0.058*[#  21]+0.024*[#  23]+0.013*[#  10]
          +0.011*[#  11]+0.011*[#  12]+0.011*[#  13]+0.011*[#  19]+0.011*[#  20]
          +0.011*[#  22]+0.011*[#  27]+0.011*[#  31]+0.003*[#   5]+0.003*[#   8]
          +0.002*[#   6]+0.002*[#   7]+0.002*[#   9]
    |psi|^2 = 0.996
==== e(  14) =    10.48295 eV ==== 
     psi = 0.190*[#   5]+0.190*[#   8]+0.088*[#  28]+0.088*[#  29]+0.088*[#  30]
          +0.088*[#  32]+0.088*[#  33]+0.088*[#  34]+0.022*[#  18]+0.022*[#  21]
          +0.007*[#   6]+0.007*[#   7]+0.007*[#   9]+0.004*[#  19]+0.004*[#  20]
          +0.004*[#  22]+0.002*[#  24]+0.002*[#  25]+0.002*[#  26]+0.002*[#  11]
          +0.002*[#  12]+0.002*[#  13]
    |psi|^2 = 0.998
==== e(  15) =    10.71341 eV ==== 
     psi = 0.110*[#  28]+0.110*[#  29]+0.110*[#  30]+0.110*[#  32]+0.110*[#  33]
          +0.110*[#  34]+0.050*[#   6]+0.050*[#   7]+0.050*[#   9]+0.028*[#  10]
          +0.018*[#  23]+0.018*[#  27]+0.018*[#  31]+0.014*[#   5]+0.014*[#   8]
          +0.014*[#  18]+0.014*[#  21]+0.013*[#  19]+0.013*[#  20]+0.013*[#  22]
          +0.002*[#  11]+0.002*[#  12]+0.002*[#  13]
    |psi|^2 = 0.996
==== e(  16) =    11.60904 eV ==== 
     psi = 0.109*[#  28]+0.109*[#  29]+0.109*[#  30]+0.109*[#  32]+0.109*[#  33]
          +0.109*[#  34]+0.061*[#  18]+0.061*[#  21]+0.043*[#   6]+0.043*[#   7]
          +0.043*[#   9]+0.041*[#   5]+0.041*[#   8]+0.002*[#  11]+0.002*[#  12]
          +0.002*[#  13]+0.002*[#  19]+0.002*[#  20]+0.002*[#  22]
    |psi|^2 = 0.997
==== e(  17) =    12.49496 eV ==== 
     psi = 0.278*[#   6]+0.278*[#   7]+0.278*[#   9]+0.018*[#   5]+0.018*[#   8]
          +0.016*[#  19]+0.016*[#  20]+0.016*[#  22]+0.011*[#  23]+0.008*[#  28]
          +0.008*[#  29]+0.008*[#  30]+0.008*[#  32]+0.008*[#  33]+0.008*[#  34]
          +0.003*[#  27]+0.003*[#  31]+0.002*[#  18]+0.002*[#  21]+0.002*[#  24]
          +0.002*[#  25]+0.002*[#  26]
    |psi|^2 = 0.995
==== e(  18) =    13.06210 eV ==== 
     psi = 0.261*[#   6]+0.261*[#   7]+0.261*[#   9]+0.022*[#  28]+0.022*[#  29]
          +0.022*[#  30]+0.022*[#  32]+0.022*[#  33]+0.022*[#  34]+0.013*[#  23]
          +0.011*[#  18]+0.011*[#  21]+0.010*[#  27]+0.010*[#  31]+0.009*[#  10]
          +0.003*[#  19]+0.003*[#  20]+0.003*[#  22]+0.002*[#  24]+0.002*[#  25]
          +0.002*[#  26]+0.001*[#  11]+0.001*[#  12]+0.001*[#  13]
    |psi|^2 = 0.997
==== e(  19) =    13.16921 eV ==== 
     psi = 0.271*[#   6]+0.271*[#   7]+0.271*[#   9]+0.032*[#  18]+0.032*[#  21]
          +0.015*[#  28]+0.015*[#  29]+0.015*[#  30]+0.015*[#  32]+0.015*[#  33]
          +0.015*[#  34]+0.006*[#   5]+0.006*[#   8]+0.005*[#  19]+0.005*[#  20]
          +0.005*[#  22]
    |psi|^2 = 0.998
==== e(  20) =    14.23997 eV ==== 
     psi = 0.251*[#   5]+0.251*[#   8]+0.056*[#  19]+0.056*[#  20]+0.056*[#  22]
          +0.040*[#  28]+0.040*[#  29]+0.040*[#  30]+0.040*[#  32]+0.040*[#  33]
          +0.040*[#  34]+0.013*[#  18]+0.013*[#  21]+0.008*[#  24]+0.008*[#  25]
          +0.008*[#  26]+0.007*[#  27]+0.007*[#  31]+0.006*[#   6]+0.006*[#   7]
          +0.006*[#   9]+0.001*[#  10]
    |psi|^2 = 0.996
==== e(  21) =    14.34051 eV ==== 
     psi = 0.215*[#   5]+0.215*[#   8]+0.068*[#  19]+0.068*[#  20]+0.068*[#  22]
          +0.049*[#  28]+0.049*[#  29]+0.049*[#  30]+0.049*[#  32]+0.049*[#  33]
          +0.049*[#  34]+0.015*[#  18]+0.015*[#  21]+0.009*[#   6]+0.009*[#   7]
          +0.009*[#   9]+0.004*[#  24]+0.004*[#  25]+0.004*[#  26]
    |psi|^2 = 0.997
==== e(  22) =    14.73704 eV ==== 
     psi = 0.279*[#  19]+0.279*[#  20]+0.279*[#  22]+0.015*[#   6]+0.015*[#   7]
          +0.015*[#   9]+0.014*[#  28]+0.014*[#  29]+0.014*[#  30]+0.014*[#  32]
          +0.014*[#  33]+0.014*[#  34]+0.005*[#  10]+0.005*[#   5]+0.005*[#   8]
          +0.002*[#  18]+0.002*[#  21]+0.001*[#  24]+0.001*[#  25]+0.001*[#  26]
          
    |psi|^2 = 0.990
==== e(  23) =    15.20015 eV ==== 
     psi = 0.245*[#  19]+0.245*[#  20]+0.245*[#  22]+0.035*[#   5]+0.035*[#   8]
          +0.020*[#  28]+0.020*[#  29]+0.020*[#  30]+0.020*[#  32]+0.020*[#  33]
          +0.020*[#  34]+0.009*[#  10]+0.007*[#  27]+0.007*[#  31]+0.006*[#   6]
          +0.006*[#   7]+0.006*[#   9]+0.005*[#  18]+0.005*[#  21]+0.003*[#  23]
          +0.002*[#  24]+0.002*[#  25]+0.002*[#  26]+0.002*[#  11]+0.002*[#  12]
          +0.002*[#  13]
    |psi|^2 = 0.993
==== e(  24) =    15.50150 eV ==== 
     psi = 0.252*[#  19]+0.252*[#  20]+0.252*[#  22]+0.032*[#   5]+0.032*[#   8]
          +0.026*[#  28]+0.026*[#  29]+0.026*[#  30]+0.026*[#  32]+0.026*[#  33]
          +0.026*[#  34]+0.008*[#  18]+0.008*[#  21]
    |psi|^2 = 0.996
==== e(  25) =    16.87760 eV ==== 
     psi = 0.377*[#  18]+0.377*[#  21]+0.027*[#  28]+0.027*[#  29]+0.027*[#  30]
          +0.027*[#  32]+0.027*[#  33]+0.027*[#  34]+0.017*[#  27]+0.017*[#  31]
          +0.011*[#   5]+0.011*[#   8]+0.007*[#  11]+0.007*[#  12]+0.007*[#  13]
          
    |psi|^2 = 0.997
==== e(  26) =    16.97637 eV ==== 
     psi = 0.360*[#  18]+0.360*[#  21]+0.039*[#  28]+0.039*[#  29]+0.039*[#  30]
          +0.039*[#  32]+0.039*[#  33]+0.039*[#  34]+0.015*[#   5]+0.015*[#   8]
          +0.003*[#  11]+0.003*[#  12]+0.003*[#  13]+0.001*[#   6]+0.001*[#   7]
          +0.001*[#   9]
    |psi|^2 = 0.998
==== e(  27) =    18.90535 eV ==== 
     psi = 0.158*[#  10]+0.138*[#  27]+0.138*[#  31]+0.130*[#  23]+0.034*[#  11]
          +0.034*[#  12]+0.034*[#  13]+0.030*[#  24]+0.030*[#  25]+0.030*[#  26]
          +0.028*[#  28]+0.028*[#  29]+0.028*[#  30]+0.028*[#  32]+0.028*[#  33]
          +0.028*[#  34]+0.015*[#  19]+0.015*[#  20]+0.015*[#  22]+0.005*[#   6]
          +0.005*[#   7]+0.005*[#   9]+0.004*[#  14]+0.004*[#   1]
    |psi|^2 = 0.993
==== e(  28) =    23.24067 eV ==== 
     psi = 0.154*[#  23]+0.139*[#  10]+0.065*[#  27]+0.065*[#  31]+0.051*[#  11]
          +0.051*[#  12]+0.051*[#  13]+0.049*[#  24]+0.049*[#  25]+0.049*[#  26]
          +0.039*[#  28]+0.039*[#  29]+0.039*[#  30]+0.039*[#  32]+0.039*[#  33]
          +0.039*[#  34]+0.002*[#  18]+0.002*[#  21]+0.002*[#  19]+0.002*[#  20]
          +0.002*[#  22]
    |psi|^2 = 0.972
==== e(  29) =    24.61363 eV ==== 
     psi = 0.141*[#  23]+0.130*[#  10]+0.062*[#  24]+0.062*[#  25]+0.062*[#  26]
          +0.061*[#  11]+0.061*[#  12]+0.061*[#  13]+0.045*[#  27]+0.045*[#  31]
          +0.028*[#  28]+0.028*[#  29]+0.028*[#  30]+0.028*[#  32]+0.028*[#  33]
          +0.028*[#  34]+0.005*[#  19]+0.005*[#  20]+0.005*[#  22]+0.002*[#   6]
          +0.002*[#   7]+0.002*[#   9]+0.001*[#   1]+0.001*[#  18]+0.001*[#  21]
          
    |psi|^2 = 0.927
==== e(  30) =    29.83159 eV ==== 
     psi = 0.135*[#  11]+0.135*[#  12]+0.135*[#  13]+0.133*[#  10]+0.017*[#  24]
          +0.017*[#  25]+0.017*[#  26]+0.008*[#   1]+0.003*[#  28]+0.003*[#  29]
          +0.003*[#  30]+0.003*[#  32]+0.003*[#  33]+0.003*[#  34]+0.002*[#   6]
          +0.002*[#   7]+0.002*[#   9]+0.001*[#  19]+0.001*[#  20]+0.001*[#  22]
          
    |psi|^2 = 0.627
==== e(  31) =    30.10359 eV ==== 
     psi = 0.144*[#  24]+0.144*[#  25]+0.144*[#  26]+0.135*[#  23]+0.037*[#  11]
          +0.037*[#  12]+0.037*[#  13]+0.014*[#  10]+0.008*[#  14]+0.004*[#  19]
          +0.004*[#  20]+0.004*[#  22]+0.003*[#  28]+0.003*[#  29]+0.003*[#  30]
          +0.003*[#  32]+0.003*[#  33]+0.003*[#  34]
    |psi|^2 = 0.732
==== e(  32) =    32.21009 eV ==== 
     psi = 0.050*[#  11]+0.050*[#  12]+0.050*[#  13]+0.047*[#  24]+0.047*[#  25]
          +0.047*[#  26]+0.008*[#  10]+0.007*[#  23]+0.002*[#  19]+0.002*[#  20]
          +0.002*[#  22]+0.002*[#  28]+0.002*[#  29]+0.002*[#  30]+0.002*[#  32]
          +0.002*[#  33]+0.002*[#  34]+0.002*[#  27]+0.002*[#  31]+0.001*[#   1]
          
    |psi|^2 = 0.334
==== e(  33) =    33.06355 eV ==== 
     psi = 0.171*[#  11]+0.171*[#  12]+0.171*[#  13]+0.116*[#  24]+0.116*[#  25]
          +0.116*[#  26]+0.004*[#  28]+0.004*[#  29]+0.004*[#  30]+0.004*[#  32]
          +0.004*[#  33]+0.004*[#  34]+0.001*[#   2]+0.001*[#   3]+0.001*[#   4]
          
    |psi|^2 = 0.891
==== e(  34) =    34.66412 eV ==== 
     psi = 0.068*[#  24]+0.068*[#  25]+0.068*[#  26]+0.066*[#  11]+0.066*[#  12]
          +0.066*[#  13]+0.055*[#  23]+0.049*[#  10]+0.004*[#  28]+0.004*[#  29]
          +0.004*[#  30]+0.004*[#  32]+0.004*[#  33]+0.004*[#  34]+0.003*[#  14]
          +0.003*[#   1]+0.001*[#  27]+0.001*[#  31]
    |psi|^2 = 0.542
==== e(  35) =    34.98165 eV ==== 
     psi = 0.126*[#  24]+0.126*[#  25]+0.126*[#  26]+0.082*[#  11]+0.082*[#  12]
          +0.082*[#  13]+0.001*[#  19]+0.001*[#  20]+0.001*[#  22]+0.001*[#  15]
          +0.001*[#  16]+0.001*[#  17]+0.001*[#  28]+0.001*[#  29]+0.001*[#  30]
          +0.001*[#  32]+0.001*[#  33]+0.001*[#  34]
    |psi|^2 = 0.643
==== e(  36) =    36.61441 eV ==== 
     psi = 0.015*[#  11]+0.015*[#  12]+0.015*[#  13]+0.014*[#  24]+0.014*[#  25]
          +0.014*[#  26]+0.006*[#  27]+0.006*[#  31]+0.001*[#  28]+0.001*[#  29]
          +0.001*[#  30]+0.001*[#  32]+0.001*[#  33]+0.001*[#  34]
    |psi|^2 = 0.111
==== e(  37) =    37.44652 eV ==== 
     psi = 0.063*[#  23]+0.052*[#  10]+0.049*[#  24]+0.049*[#  25]+0.049*[#  26]
          +0.038*[#  11]+0.038*[#  12]+0.038*[#  13]+0.005*[#  14]+0.005*[#   1]
          +0.001*[#  27]+0.001*[#  31]
    |psi|^2 = 0.398
==== e(  38) =    39.12011 eV ==== 
     psi = 0.031*[#  24]+0.031*[#  25]+0.031*[#  26]+0.027*[#  11]+0.027*[#  12]
          +0.027*[#  13]
    |psi|^2 = 0.177
==== e(  39) =    42.09304 eV ==== 
     psi = 0.009*[#  24]+0.009*[#  25]+0.009*[#  26]+0.006*[#  11]+0.006*[#  12]
          +0.006*[#  13]
    |psi|^2 = 0.049
==== e(  40) =    42.13523 eV ==== 
     psi = 0.007*[#  11]+0.007*[#  12]+0.007*[#  13]+0.007*[#  24]+0.007*[#  25]
          +0.007*[#  26]+0.004*[#  27]+0.004*[#  31]+0.002*[#  10]+0.001*[#  23]
          
    |psi|^2 = 0.058

 k =   0.4387400170  0.0767147199 -0.2853105772
==== e(   1) =   -80.98239 eV ==== 
     psi = 0.963*[#   1]+0.009*[#  11]+0.009*[#  12]+0.009*[#  13]+0.003*[#  10]
          +0.001*[#  24]+0.001*[#  25]+0.001*[#  26]
    |psi|^2 = 1.000
==== e(   2) =   -77.91864 eV ==== 
     psi = 0.963*[#  14]+0.009*[#  24]+0.009*[#  25]+0.009*[#  26]+0.002*[#  23]
          +0.001*[#  11]+0.001*[#  12]+0.001*[#  13]
    |psi|^2 = 1.000
==== e(   3) =   -44.48571 eV ==== 
     psi = 0.332*[#   2]+0.332*[#   3]+0.332*[#   4]
    |psi|^2 = 1.000
==== e(   4) =   -44.34772 eV ==== 
     psi = 0.332*[#   2]+0.332*[#   3]+0.332*[#   4]+0.001*[#  10]
    |psi|^2 = 1.000
==== e(   5) =   -44.31652 eV ==== 
     psi = 0.331*[#   2]+0.331*[#   3]+0.331*[#   4]+0.001*[#  11]+0.001*[#  12]
          +0.001*[#  13]
    |psi|^2 = 1.000
==== e(   6) =   -41.45737 eV ==== 
     psi = 0.332*[#  15]+0.332*[#  16]+0.332*[#  17]+0.001*[#  23]
    |psi|^2 = 1.000
==== e(   7) =   -41.45227 eV ==== 
     psi = 0.332*[#  15]+0.332*[#  16]+0.332*[#  17]
    |psi|^2 = 1.000
==== e(   8) =   -41.42077 eV ==== 
     psi = 0.332*[#  15]+0.332*[#  16]+0.332*[#  17]+0.001*[#  24]+0.001*[#  25]
          +0.001*[#  26]
    |psi|^2 = 1.000
==== e(   9) =    -4.35809 eV ==== 
     psi = 0.330*[#  27]+0.330*[#  31]+0.045*[#  10]+0.043*[#  23]+0.039*[#  11]
          +0.039*[#  12]+0.039*[#  13]+0.038*[#  24]+0.038*[#  25]+0.038*[#  26]
          +0.004*[#   1]+0.004*[#  14]+0.001*[#   5]+0.001*[#   8]+0.001*[#  18]
          +0.001*[#  21]
    |psi|^2 = 1.000
==== e(  10) =    -3.85239 eV ==== 
     psi = 0.380*[#  27]+0.380*[#  31]+0.033*[#  11]+0.033*[#  12]+0.033*[#  13]
          +0.033*[#  24]+0.033*[#  25]+0.033*[#  26]+0.009*[#   5]+0.009*[#   8]
          +0.008*[#  18]+0.008*[#  21]+0.003*[#  10]+0.003*[#  23]
    |psi|^2 = 1.000
==== e(  11) =     7.84586 eV ==== 
     psi = 0.099*[#  28]+0.099*[#  29]+0.099*[#  30]+0.099*[#  32]+0.099*[#  33]
          +0.099*[#  34]+0.066*[#  23]+0.058*[#  10]+0.028*[#  24]+0.028*[#  25]
          +0.028*[#  26]+0.027*[#  11]+0.027*[#  12]+0.027*[#  13]+0.016*[#   5]
          +0.016*[#   8]+0.014*[#   6]+0.014*[#   7]+0.014*[#   9]+0.007*[#  19]
          +0.007*[#  20]+0.007*[#  22]+0.005*[#  18]+0.005*[#  21]+0.003*[#  14]
          +0.003*[#  27]+0.003*[#  31]+0.003*[#   1]
    |psi|^2 = 0.999
==== e(  12) =     8.79501 eV ==== 
     psi = 0.104*[#  28]+0.104*[#  29]+0.104*[#  30]+0.104*[#  32]+0.104*[#  33]
          +0.104*[#  34]+0.051*[#  10]+0.048*[#   5]+0.048*[#   8]+0.030*[#  23]
          +0.026*[#  27]+0.026*[#  31]+0.021*[#  18]+0.021*[#  21]+0.013*[#   6]
          +0.013*[#   7]+0.013*[#   9]+0.009*[#  11]+0.009*[#  12]+0.009*[#  13]
          +0.008*[#  19]+0.008*[#  20]+0.008*[#  22]+0.003*[#  24]+0.003*[#  25]
          +0.003*[#  26]+0.002*[#   1]+0.002*[#  14]
    |psi|^2 = 0.998
==== e(  13) =     9.32638 eV ==== 
     psi = 0.101*[#  28]+0.101*[#  29]+0.101*[#  30]+0.101*[#  32]+0.101*[#  33]
          +0.101*[#  34]+0.062*[#   5]+0.062*[#   8]+0.031*[#   6]+0.031*[#   7]
          +0.031*[#   9]+0.026*[#  24]+0.026*[#  25]+0.026*[#  26]+0.019*[#  11]
          +0.019*[#  12]+0.019*[#  13]+0.008*[#  19]+0.008*[#  20]+0.008*[#  22]
          +0.004*[#  23]+0.004*[#  27]+0.004*[#  31]+0.002*[#  18]+0.002*[#  21]
          
    |psi|^2 = 0.999
==== e(  14) =     9.83335 eV ==== 
     psi = 0.108*[#  28]+0.108*[#  29]+0.108*[#  30]+0.108*[#  32]+0.108*[#  33]
          +0.108*[#  34]+0.067*[#   5]+0.067*[#   8]+0.048*[#  18]+0.048*[#  21]
          +0.011*[#   6]+0.011*[#   7]+0.011*[#   9]+0.010*[#  19]+0.010*[#  20]
          +0.010*[#  22]+0.009*[#  11]+0.009*[#  12]+0.009*[#  13]+0.004*[#  24]
          +0.004*[#  25]+0.004*[#  26]+0.004*[#  27]+0.004*[#  31]+0.003*[#  23]
          +0.002*[#  10]
    |psi|^2 = 0.997
==== e(  15) =    10.34517 eV ==== 
     psi = 0.104*[#  28]+0.104*[#  29]+0.104*[#  30]+0.104*[#  32]+0.104*[#  33]
          +0.104*[#  34]+0.102*[#   5]+0.102*[#   8]+0.038*[#  18]+0.038*[#  21]
          +0.012*[#   6]+0.012*[#   7]+0.012*[#   9]+0.011*[#  10]+0.006*[#  11]
          +0.006*[#  12]+0.006*[#  13]+0.006*[#  24]+0.006*[#  25]+0.006*[#  26]
          +0.003*[#  19]+0.003*[#  20]+0.003*[#  22]+0.001*[#  23]
    |psi|^2 = 0.998
==== e(  16) =    10.84702 eV ==== 
     psi = 0.103*[#  28]+0.103*[#  29]+0.103*[#  30]+0.103*[#  32]+0.103*[#  33]
          +0.103*[#  34]+0.066*[#   6]+0.066*[#   7]+0.066*[#   9]+0.022*[#  19]
          +0.022*[#  20]+0.022*[#  22]+0.015*[#   5]+0.015*[#   8]+0.012*[#  18]
          +0.012*[#  21]+0.010*[#  11]+0.010*[#  12]+0.010*[#  13]+0.008*[#  24]
          +0.008*[#  25]+0.008*[#  26]+0.002*[#  23]
    |psi|^2 = 0.997
==== e(  17) =    12.69768 eV ==== 
     psi = 0.286*[#   6]+0.286*[#   7]+0.286*[#   9]+0.011*[#   5]+0.011*[#   8]
          +0.011*[#  19]+0.011*[#  20]+0.011*[#  22]+0.009*[#  23]+0.008*[#  28]
          +0.008*[#  29]+0.008*[#  30]+0.008*[#  32]+0.008*[#  33]+0.008*[#  34]
          +0.003*[#  18]+0.003*[#  21]+0.003*[#  27]+0.003*[#  31]+0.003*[#  24]
          +0.003*[#  25]+0.003*[#  26]
    |psi|^2 = 0.996
==== e(  18) =    13.24807 eV ==== 
     psi = 0.232*[#   6]+0.232*[#   7]+0.232*[#   9]+0.039*[#  28]+0.039*[#  29]
          +0.039*[#  30]+0.039*[#  32]+0.039*[#  33]+0.039*[#  34]+0.009*[#   5]
          +0.009*[#   8]+0.007*[#  18]+0.007*[#  21]+0.007*[#  23]+0.005*[#  19]
          +0.005*[#  20]+0.005*[#  22]+0.002*[#  27]+0.002*[#  31]+0.001*[#  24]
          +0.001*[#  25]+0.001*[#  26]
    |psi|^2 = 0.997
==== e(  19) =    13.58415 eV ==== 
     psi = 0.279*[#   6]+0.279*[#   7]+0.279*[#   9]+0.022*[#   5]+0.022*[#   8]
          +0.017*[#  18]+0.017*[#  21]+0.009*[#  28]+0.009*[#  29]+0.009*[#  30]
          +0.009*[#  32]+0.009*[#  33]+0.009*[#  34]+0.005*[#  19]+0.005*[#  20]
          +0.005*[#  22]+0.003*[#  24]+0.003*[#  25]+0.003*[#  26]+0.002*[#  23]
          +0.001*[#  27]+0.001*[#  31]+0.001*[#  10]
    |psi|^2 = 0.999
==== e(  20) =    14.00714 eV ==== 
     psi = 0.287*[#   5]+0.287*[#   8]+0.034*[#  18]+0.034*[#  21]+0.032*[#  19]
          +0.032*[#  20]+0.032*[#  22]+0.026*[#  28]+0.026*[#  29]+0.026*[#  30]
          +0.026*[#  32]+0.026*[#  33]+0.026*[#  34]+0.021*[#  23]+0.016*[#   6]
          +0.016*[#   7]+0.016*[#   9]+0.012*[#  27]+0.012*[#  31]+0.002*[#  24]
          +0.002*[#  25]+0.002*[#  26]+0.001*[#  11]+0.001*[#  12]+0.001*[#  13]
          
    |psi|^2 = 0.997
==== e(  21) =    14.35415 eV ==== 
     psi = 0.253*[#   5]+0.253*[#   8]+0.051*[#  19]+0.051*[#  20]+0.051*[#  22]
          +0.032*[#  28]+0.032*[#  29]+0.032*[#  30]+0.032*[#  32]+0.032*[#  33]
          +0.032*[#  34]+0.028*[#  18]+0.028*[#  21]+0.014*[#   6]+0.014*[#   7]
          +0.014*[#   9]+0.012*[#  27]+0.012*[#  31]+0.007*[#  24]+0.007*[#  25]
          +0.007*[#  26]
    |psi|^2 = 0.997
==== e(  22) =    14.98610 eV ==== 
     psi = 0.272*[#  19]+0.272*[#  20]+0.272*[#  22]+0.020*[#   5]+0.020*[#   8]
          +0.014*[#  28]+0.014*[#  29]+0.014*[#  30]+0.014*[#  32]+0.014*[#  33]
          +0.014*[#  34]+0.011*[#  18]+0.011*[#  21]+0.006*[#   6]+0.006*[#   7]
          +0.006*[#   9]+0.003*[#  10]+0.002*[#  27]+0.002*[#  31]
    |psi|^2 = 0.992
==== e(  23) =    15.10503 eV ==== 
     psi = 0.224*[#  19]+0.224*[#  20]+0.224*[#  22]+0.034*[#   5]+0.034*[#   8]
          +0.028*[#  28]+0.028*[#  29]+0.028*[#  30]+0.028*[#  32]+0.028*[#  33]
          +0.028*[#  34]+0.025*[#  18]+0.025*[#  21]+0.007*[#  10]+0.004*[#   6]
          +0.004*[#   7]+0.004*[#   9]+0.004*[#  27]+0.004*[#  31]+0.001*[#  11]
          +0.001*[#  12]+0.001*[#  13]
    |psi|^2 = 0.992
==== e(  24) =    15.86420 eV ==== 
     psi = 0.299*[#  19]+0.299*[#  20]+0.299*[#  22]+0.007*[#  28]+0.007*[#  29]
          +0.007*[#  30]+0.007*[#  32]+0.007*[#  33]+0.007*[#  34]+0.007*[#  10]
          +0.007*[#  18]+0.007*[#  21]+0.006*[#  27]+0.006*[#  31]+0.004*[#   5]
          +0.004*[#   8]+0.002*[#  23]+0.002*[#  11]+0.002*[#  12]+0.002*[#  13]
          +0.002*[#  24]+0.002*[#  25]+0.002*[#  26]
    |psi|^2 = 0.997
==== e(  25) =    16.82983 eV ==== 
     psi = 0.358*[#  18]+0.358*[#  21]+0.028*[#  28]+0.028*[#  29]+0.028*[#  30]
          +0.028*[#  32]+0.028*[#  33]+0.028*[#  34]+0.027*[#  10]+0.020*[#   5]
          +0.020*[#   8]+0.008*[#  19]+0.008*[#  20]+0.008*[#  22]+0.007*[#  27]
          +0.007*[#  31]+0.001*[#  24]+0.001*[#  25]+0.001*[#  26]
    |psi|^2 = 0.998
==== e(  26) =    17.17284 eV ==== 
     psi = 0.353*[#  18]+0.353*[#  21]+0.034*[#  28]+0.034*[#  29]+0.034*[#  30]
          +0.034*[#  32]+0.034*[#  33]+0.034*[#  34]+0.013*[#  27]+0.013*[#  31]
          +0.011*[#   5]+0.011*[#   8]+0.006*[#  11]+0.006*[#  12]+0.006*[#  13]
          +0.005*[#  19]+0.005*[#  20]+0.005*[#  22]+0.002*[#   6]+0.002*[#   7]
          +0.002*[#   9]+0.001*[#  23]
    |psi|^2 = 0.998
==== e(  27) =    20.72557 eV ==== 
     psi = 0.098*[#  27]+0.098*[#  31]+0.088*[#  10]+0.069*[#  23]+0.058*[#  11]
          +0.058*[#  12]+0.058*[#  13]+0.049*[#  24]+0.049*[#  25]+0.049*[#  26]
          +0.041*[#  28]+0.041*[#  29]+0.041*[#  30]+0.041*[#  32]+0.041*[#  33]
          +0.041*[#  34]+0.014*[#  18]+0.014*[#  21]+0.006*[#  19]+0.006*[#  20]
          +0.006*[#  22]+0.004*[#   5]+0.004*[#   8]+0.003*[#  14]+0.003*[#   1]
          +0.003*[#   6]+0.003*[#   7]+0.003*[#   9]
    |psi|^2 = 0.987
==== e(  28) =    23.33762 eV ==== 
     psi = 0.219*[#  23]+0.202*[#  10]+0.047*[#  28]+0.047*[#  29]+0.047*[#  30]
          +0.047*[#  32]+0.047*[#  33]+0.047*[#  34]+0.041*[#  24]+0.041*[#  25]
          +0.041*[#  26]+0.032*[#  11]+0.032*[#  12]+0.032*[#  13]+0.016*[#  27]
          +0.016*[#  31]+0.004*[#  19]+0.004*[#  20]+0.004*[#  22]+0.003*[#  18]
          +0.003*[#  21]+0.002*[#   6]+0.002*[#   7]+0.002*[#   9]+0.001*[#   5]
          +0.001*[#   8]
    |psi|^2 = 0.980
==== e(  29) =    26.29768 eV ==== 
     psi = 0.109*[#  11]+0.109*[#  12]+0.109*[#  13]+0.097*[#  24]+0.097*[#  25]
          +0.097*[#  26]+0.043*[#  27]+0.043*[#  31]+0.024*[#  28]+0.024*[#  29]
          +0.024*[#  30]+0.024*[#  32]+0.024*[#  33]+0.024*[#  34]+0.020*[#  10]
          +0.020*[#  23]+0.004*[#  19]+0.004*[#  20]+0.004*[#  22]+0.002*[#   6]
          +0.002*[#   7]+0.002*[#   9]
    |psi|^2 = 0.909
==== e(  30) =    27.95669 eV ==== 
     psi = 0.217*[#  10]+0.114*[#  23]+0.095*[#  11]+0.095*[#  12]+0.095*[#  13]
          +0.066*[#  24]+0.066*[#  25]+0.066*[#  26]+0.011*[#  28]+0.011*[#  29]
          +0.011*[#  30]+0.011*[#  32]+0.011*[#  33]+0.011*[#  34]+0.009*[#   1]
          +0.004*[#  14]+0.002*[#  19]+0.002*[#  20]+0.002*[#  22]+0.001*[#   6]
          +0.001*[#   7]+0.001*[#   9]
    |psi|^2 = 0.909
==== e(  31) =    28.45432 eV ==== 
     psi = 0.098*[#  11]+0.098*[#  12]+0.098*[#  13]+0.079*[#  24]+0.079*[#  25]
          +0.079*[#  26]+0.035*[#  23]+0.009*[#  10]+0.006*[#  19]+0.006*[#  20]
          +0.006*[#  22]+0.005*[#  28]+0.005*[#  29]+0.005*[#  30]+0.005*[#  32]
          +0.005*[#  33]+0.005*[#  34]+0.003*[#   6]+0.003*[#   7]+0.003*[#   9]
          
    |psi|^2 = 0.635
==== e(  32) =    30.00920 eV ==== 
     psi = 0.297*[#  23]+0.208*[#  10]+0.070*[#  24]+0.070*[#  25]+0.070*[#  26]
          +0.050*[#  11]+0.050*[#  12]+0.050*[#  13]+0.014*[#  14]+0.011*[#   1]
          +0.003*[#  27]+0.003*[#  31]+0.002*[#  28]+0.002*[#  29]+0.002*[#  30]
          +0.002*[#  32]+0.002*[#  33]+0.002*[#  34]+0.001*[#  18]+0.001*[#  21]
          
    |psi|^2 = 0.916
==== e(  33) =    31.31977 eV ==== 
     psi = 0.135*[#  11]+0.135*[#  12]+0.135*[#  13]+0.118*[#  24]+0.118*[#  25]
          +0.118*[#  26]+0.007*[#  28]+0.007*[#  29]+0.007*[#  30]+0.007*[#  32]
          +0.007*[#  33]+0.007*[#  34]+0.002*[#  23]+0.002*[#  27]+0.002*[#  31]
          
    |psi|^2 = 0.815
==== e(  34) =    31.49701 eV ==== 
     psi = 0.162*[#  24]+0.162*[#  25]+0.162*[#  26]+0.125*[#  11]+0.125*[#  12]
          +0.125*[#  13]+0.017*[#  27]+0.017*[#  31]+0.003*[#  28]+0.003*[#  29]
          +0.003*[#  30]+0.003*[#  32]+0.003*[#  33]+0.003*[#  34]+0.002*[#  19]
          +0.002*[#  20]+0.002*[#  22]+0.001*[#  23]
    |psi|^2 = 0.926
==== e(  35) =    35.03186 eV ==== 
     psi = 0.024*[#  24]+0.024*[#  25]+0.024*[#  26]+0.021*[#  11]+0.021*[#  12]
          +0.021*[#  13]+0.006*[#  23]+0.006*[#  10]
    |psi|^2 = 0.155
==== e(  36) =    37.04901 eV ==== 
     psi = 0.016*[#  11]+0.016*[#  12]+0.016*[#  13]+0.015*[#  24]+0.015*[#  25]
          +0.015*[#  26]+0.004*[#  23]+0.003*[#  28]+0.003*[#  29]+0.003*[#  30]
          +0.003*[#  32]+0.003*[#  33]+0.003*[#  34]+0.001*[#  10]
    |psi|^2 = 0.117
==== e(  37) =    38.49746 eV ==== 
     psi = 0.052*[#  24]+0.052*[#  25]+0.052*[#  26]+0.043*[#  11]+0.043*[#  12]
          +0.043*[#  13]+0.003*[#  28]+0.003*[#  29]+0.003*[#  30]+0.003*[#  32]
          +0.003*[#  33]+0.003*[#  34]+0.002*[#  23]+0.001*[#  10]
    |psi|^2 = 0.311
==== e(  38) =    38.83598 eV ==== 
     psi = 0.008*[#  24]+0.008*[#  25]+0.008*[#  26]+0.006*[#  11]+0.006*[#  12]
          +0.006*[#  13]+0.003*[#  27]+0.003*[#  31]+0.001*[#  28]+0.001*[#  29]
          +0.001*[#  30]+0.001*[#  32]+0.001*[#  33]+0.001*[#  34]+0.001*[#  23]
          +0.001*[#  10]
    |psi|^2 = 0.061
==== e(  39) =    41.23702 eV ==== 
     psi = 0.003*[#  23]+0.003*[#  10]+0.002*[#  24]+0.002*[#  25]+0.002*[#  26]
          +0.001*[#  11]+0.001*[#  12]+0.001*[#  13]
    |psi|^2 = 0.018
==== e(  40) =    44.83644 eV ==== 
     psi = 0.002*[#  11]+0.002*[#  12]+0.002*[#  13]
    |psi|^2 = 0.011

 k =  -0.8958688398  0.5522323486  0.1902070515
==== e(   1) =   -80.97897 eV ==== 
     psi = 0.983*[#   1]+0.005*[#  10]+0.002*[#  11]+0.002*[#  12]+0.002*[#  13]
          
    |psi|^2 = 1.000
==== e(   2) =   -77.91475 eV ==== 
     psi = 0.984*[#  14]+0.004*[#  23]+0.002*[#  24]+0.002*[#  25]+0.002*[#  26]
          
    |psi|^2 = 1.000
==== e(   3) =   -44.48110 eV ==== 
     psi = 0.332*[#   2]+0.332*[#   3]+0.332*[#   4]
    |psi|^2 = 1.000
==== e(   4) =   -44.37220 eV ==== 
     psi = 0.332*[#   2]+0.332*[#   3]+0.332*[#   4]
    |psi|^2 = 1.000
==== e(   5) =   -44.33114 eV ==== 
     psi = 0.332*[#   2]+0.332*[#   3]+0.332*[#   4]
    |psi|^2 = 1.000
==== e(   6) =   -41.48584 eV ==== 
     psi = 0.331*[#  15]+0.331*[#  16]+0.331*[#  17]+0.001*[#  24]+0.001*[#  25]
          +0.001*[#  26]
    |psi|^2 = 1.000
==== e(   7) =   -41.44676 eV ==== 
     psi = 0.332*[#  15]+0.332*[#  16]+0.332*[#  17]
    |psi|^2 = 1.000
==== e(   8) =   -41.43766 eV ==== 
     psi = 0.332*[#  15]+0.332*[#  16]+0.332*[#  17]
    |psi|^2 = 1.000
==== e(   9) =    -3.71784 eV ==== 
     psi = 0.390*[#  27]+0.390*[#  31]+0.028*[#  24]+0.028*[#  25]+0.028*[#  26]
          +0.026*[#  11]+0.026*[#  12]+0.026*[#  13]+0.013*[#  10]+0.013*[#  23]
          +0.008*[#   5]+0.008*[#   8]+0.006*[#  18]+0.006*[#  21]
    |psi|^2 = 0.999
==== e(  10) =    -3.56390 eV ==== 
     psi = 0.408*[#  27]+0.408*[#  31]+0.025*[#  11]+0.025*[#  12]+0.025*[#  13]
          +0.022*[#  24]+0.022*[#  25]+0.022*[#  26]+0.010*[#   5]+0.010*[#   8]
          +0.009*[#  18]+0.009*[#  21]
    |psi|^2 = 0.999
==== e(  11) =     7.93438 eV ==== 
     psi = 0.103*[#  28]+0.103*[#  29]+0.103*[#  30]+0.103*[#  32]+0.103*[#  33]
          +0.103*[#  34]+0.044*[#  10]+0.030*[#   5]+0.030*[#   8]+0.029*[#  24]
          +0.029*[#  25]+0.029*[#  26]+0.021*[#  23]+0.020*[#   6]+0.020*[#   7]
          +0.020*[#   9]+0.014*[#  11]+0.014*[#  12]+0.014*[#  13]+0.011*[#  18]
          +0.011*[#  21]+0.009*[#  27]+0.009*[#  31]+0.006*[#  19]+0.006*[#  20]
          +0.006*[#  22]+0.002*[#   1]+0.002*[#  14]
    |psi|^2 = 0.999
==== e(  12) =     8.06141 eV ==== 
     psi = 0.106*[#  28]+0.106*[#  29]+0.106*[#  30]+0.106*[#  32]+0.106*[#  33]
          +0.106*[#  34]+0.055*[#  23]+0.034*[#  10]+0.027*[#  11]+0.027*[#  12]
          +0.027*[#  13]+0.024*[#   6]+0.024*[#   7]+0.024*[#   9]+0.017*[#  24]
          +0.017*[#  25]+0.017*[#  26]+0.016*[#  19]+0.016*[#  20]+0.016*[#  22]
          +0.009*[#   5]+0.009*[#   8]+0.002*[#  14]
    |psi|^2 = 0.999
==== e(  13) =     8.88670 eV ==== 
     psi = 0.103*[#  28]+0.103*[#  29]+0.103*[#  30]+0.103*[#  32]+0.103*[#  33]
          +0.103*[#  34]+0.054*[#   5]+0.054*[#   8]+0.029*[#  11]+0.029*[#  12]
          +0.029*[#  13]+0.024*[#  24]+0.024*[#  25]+0.024*[#  26]+0.020*[#  18]
          +0.020*[#  21]+0.013*[#   6]+0.013*[#   7]+0.013*[#   9]+0.008*[#  10]
          +0.007*[#  19]+0.007*[#  20]+0.007*[#  22]
    |psi|^2 = 0.999
==== e(  14) =     9.40707 eV ==== 
     psi = 0.105*[#  28]+0.105*[#  29]+0.105*[#  30]+0.105*[#  32]+0.105*[#  33]
          +0.105*[#  34]+0.097*[#   5]+0.097*[#   8]+0.043*[#  18]+0.043*[#  21]
          +0.013*[#  23]+0.009*[#  11]+0.009*[#  12]+0.009*[#  13]+0.006*[#   6]
          +0.006*[#   7]+0.006*[#   9]+0.006*[#  24]+0.006*[#  25]+0.006*[#  26]
          +0.002*[#  19]+0.002*[#  20]+0.002*[#  22]+0.002*[#  10]
    |psi|^2 = 0.998
==== e(  15) =     9.88859 eV ==== 
     psi = 0.108*[#  28]+0.108*[#  29]+0.108*[#  30]+0.108*[#  32]+0.108*[#  33]
          +0.108*[#  34]+0.067*[#   5]+0.067*[#   8]+0.035*[#  18]+0.035*[#  21]
          +0.014*[#  11]+0.014*[#  12]+0.014*[#  13]+0.012*[#   6]+0.012*[#   7]
          +0.012*[#   9]+0.009*[#  19]+0.009*[#  20]+0.009*[#  22]+0.009*[#  24]
          +0.009*[#  25]+0.009*[#  26]+0.008*[#  10]+0.001*[#  23]
    |psi|^2 = 0.998
==== e(  16) =    10.08988 eV ==== 
     psi = 0.104*[#  28]+0.104*[#  29]+0.104*[#  30]+0.104*[#  32]+0.104*[#  33]
          +0.104*[#  34]+0.054*[#   6]+0.054*[#   7]+0.054*[#   9]+0.021*[#  19]
          +0.021*[#  20]+0.021*[#  22]+0.018*[#  11]+0.018*[#  12]+0.018*[#  13]
          +0.016*[#  24]+0.016*[#  25]+0.016*[#  26]+0.012*[#  18]+0.012*[#  21]
          +0.010*[#   5]+0.010*[#   8]+0.005*[#  10]
    |psi|^2 = 0.998
==== e(  17) =    12.80428 eV ==== 
     psi = 0.267*[#   6]+0.267*[#   7]+0.267*[#   9]+0.025*[#  28]+0.025*[#  29]
          +0.025*[#  30]+0.025*[#  32]+0.025*[#  33]+0.025*[#  34]+0.005*[#  18]
          +0.005*[#  21]+0.005*[#  19]+0.005*[#  20]+0.005*[#  22]+0.002*[#  23]
          +0.002*[#  24]+0.002*[#  25]+0.002*[#  26]+0.002*[#   5]+0.002*[#   8]
          
    |psi|^2 = 0.996
==== e(  18) =    13.51007 eV ==== 
     psi = 0.272*[#   6]+0.272*[#   7]+0.272*[#   9]+0.028*[#   5]+0.028*[#   8]
          +0.015*[#  28]+0.015*[#  29]+0.015*[#  30]+0.015*[#  32]+0.015*[#  33]
          +0.015*[#  34]+0.005*[#  18]+0.005*[#  19]+0.005*[#  20]+0.005*[#  21]
          +0.005*[#  22]+0.002*[#  23]+0.001*[#  27]+0.001*[#  31]+0.001*[#  24]
          +0.001*[#  25]+0.001*[#  26]
    |psi|^2 = 0.999
==== e(  19) =    13.80001 eV ==== 
     psi = 0.250*[#   6]+0.250*[#   7]+0.250*[#   9]+0.068*[#   5]+0.068*[#   8]
          +0.013*[#  18]+0.013*[#  21]+0.012*[#  28]+0.012*[#  29]+0.012*[#  30]
          +0.012*[#  32]+0.012*[#  33]+0.012*[#  34]+0.003*[#  23]+0.002*[#  10]
          +0.002*[#  19]+0.002*[#  20]+0.002*[#  22]+0.001*[#  27]+0.001*[#  31]
          
[...]
    |psi|^2 = 0.997
==== e(  17) =    12.80447 eV ==== 
     psi = 0.286*[#  19]+0.286*[#  20]+0.286*[#  22]+0.016*[#   5]+0.016*[#   8]
          +0.015*[#  28]+0.015*[#  29]+0.015*[#  30]+0.015*[#  32]+0.015*[#  33]
          +0.015*[#  34]+0.005*[#   6]+0.005*[#   7]+0.005*[#   9]+0.002*[#  23]
          
    |psi|^2 = 0.996
==== e(  18) =    12.92898 eV ==== 
     psi = 0.209*[#  19]+0.209*[#  20]+0.209*[#  22]+0.057*[#  18]+0.057*[#  21]
          +0.027*[#  10]+0.025*[#  28]+0.025*[#  29]+0.025*[#  30]+0.025*[#  32]
          +0.025*[#  33]+0.025*[#  34]+0.018*[#   6]+0.018*[#   7]+0.018*[#   9]
          +0.009*[#  27]+0.009*[#  31]+0.002*[#  11]+0.002*[#  12]+0.002*[#  13]
          +0.001*[#   5]+0.001*[#   8]
    |psi|^2 = 0.995
==== e(  19) =    13.67332 eV ==== 
     psi = 0.249*[#  19]+0.249*[#  20]+0.249*[#  22]+0.036*[#  18]+0.036*[#  21]
          +0.024*[#   6]+0.024*[#   7]+0.024*[#   9]+0.014*[#  28]+0.014*[#  29]
          +0.014*[#  30]+0.014*[#  32]+0.014*[#  33]+0.014*[#  34]+0.007*[#   5]
          +0.007*[#   8]+0.002*[#  11]+0.002*[#  12]+0.002*[#  13]+0.002*[#  23]
          
    |psi|^2 = 0.999
==== e(  20) =    13.92443 eV ==== 
     psi = 0.258*[#  18]+0.258*[#  21]+0.042*[#   6]+0.042*[#   7]+0.042*[#   9]
          +0.038*[#  19]+0.038*[#  20]+0.038*[#  22]+0.032*[#   5]+0.032*[#   8]
          +0.017*[#  27]+0.017*[#  31]+0.016*[#  28]+0.016*[#  29]+0.016*[#  30]
          +0.016*[#  32]+0.016*[#  33]+0.016*[#  34]+0.012*[#  11]+0.012*[#  12]
          +0.012*[#  13]+0.008*[#  10]
    |psi|^2 = 0.997
==== e(  21) =    14.37085 eV ==== 
     psi = 0.252*[#  18]+0.252*[#  21]+0.047*[#  28]+0.047*[#  29]+0.047*[#  30]
          +0.047*[#  32]+0.047*[#  33]+0.047*[#  34]+0.030*[#  19]+0.030*[#  20]
          +0.030*[#  22]+0.020*[#   6]+0.020*[#   7]+0.020*[#   9]+0.018*[#   5]
          +0.018*[#   8]+0.007*[#  11]+0.007*[#  12]+0.007*[#  13]+0.002*[#  27]
          +0.002*[#  31]+0.001*[#  23]
    |psi|^2 = 0.997
==== e(  22) =    14.98740 eV ==== 
     psi = 0.233*[#   6]+0.233*[#   7]+0.233*[#   9]+0.028*[#   5]+0.028*[#   8]
          +0.020*[#  23]+0.020*[#  28]+0.020*[#  29]+0.020*[#  30]+0.020*[#  32]
          +0.020*[#  33]+0.020*[#  34]+0.016*[#  19]+0.016*[#  20]+0.016*[#  22]
          +0.016*[#  18]+0.016*[#  21]+0.003*[#  27]+0.003*[#  31]+0.002*[#  11]
          +0.002*[#  12]+0.002*[#  13]+0.001*[#  24]+0.001*[#  25]+0.001*[#  26]
          
    |psi|^2 = 0.992
==== e(  23) =    15.17731 eV ==== 
     psi = 0.257*[#   6]+0.257*[#   7]+0.257*[#   9]+0.041*[#  18]+0.041*[#  21]
          +0.018*[#  28]+0.018*[#  29]+0.018*[#  30]+0.018*[#  32]+0.018*[#  33]
          +0.018*[#  34]+0.008*[#   5]+0.008*[#   8]+0.004*[#  19]+0.004*[#  20]
          +0.004*[#  22]+0.002*[#  27]+0.002*[#  31]+0.001*[#  10]
    |psi|^2 = 0.994
==== e(  24) =    15.96271 eV ==== 
     psi = 0.300*[#   6]+0.300*[#   7]+0.300*[#   9]+0.014*[#  28]+0.014*[#  29]
          +0.014*[#  30]+0.014*[#  32]+0.014*[#  33]+0.014*[#  34]+0.002*[#  18]
          +0.002*[#  21]+0.001*[#  19]+0.001*[#  20]+0.001*[#  22]
    |psi|^2 = 0.998
==== e(  25) =    16.76378 eV ==== 
     psi = 0.343*[#   5]+0.343*[#   8]+0.034*[#  27]+0.034*[#  31]+0.020*[#  23]
          +0.019*[#  28]+0.019*[#  29]+0.019*[#  30]+0.019*[#  32]+0.019*[#  33]
          +0.019*[#  34]+0.013*[#  18]+0.013*[#  21]+0.012*[#  24]+0.012*[#  25]
          +0.012*[#  26]+0.011*[#   6]+0.011*[#   7]+0.011*[#   9]+0.003*[#  19]
          +0.003*[#  20]+0.003*[#  22]
    |psi|^2 = 0.998
==== e(  26) =    16.95177 eV ==== 
     psi = 0.382*[#   5]+0.382*[#   8]+0.029*[#  28]+0.029*[#  29]+0.029*[#  30]
          +0.029*[#  32]+0.029*[#  33]+0.029*[#  34]+0.009*[#  18]+0.009*[#  21]
          +0.009*[#  27]+0.009*[#  31]+0.005*[#  24]+0.005*[#  25]+0.005*[#  26]
          +0.002*[#   6]+0.002*[#   7]+0.002*[#   9]
    |psi|^2 = 0.997
==== e(  27) =    21.90431 eV ==== 
     psi = 0.254*[#  23]+0.075*[#  24]+0.075*[#  25]+0.075*[#  26]+0.055*[#  27]
          +0.055*[#  31]+0.049*[#  28]+0.049*[#  29]+0.049*[#  30]+0.049*[#  32]
          +0.049*[#  33]+0.049*[#  34]+0.027*[#   5]+0.027*[#   8]+0.012*[#  11]
          +0.012*[#  12]+0.012*[#  13]+0.003*[#  19]+0.003*[#  20]+0.003*[#  22]
          +0.001*[#  14]
    |psi|^2 = 0.988
==== e(  28) =    22.05848 eV ==== 
     psi = 0.254*[#  10]+0.081*[#  11]+0.081*[#  12]+0.081*[#  13]+0.065*[#  27]
          +0.065*[#  31]+0.044*[#  28]+0.044*[#  29]+0.044*[#  30]+0.044*[#  32]
          +0.044*[#  33]+0.044*[#  34]+0.015*[#  24]+0.015*[#  25]+0.015*[#  26]
          +0.009*[#  18]+0.009*[#  21]+0.008*[#   6]+0.008*[#   7]+0.008*[#   9]
          +0.002*[#   1]+0.001*[#   5]+0.001*[#   8]
    |psi|^2 = 0.986
==== e(  29) =    27.60344 eV ==== 
     psi = 0.224*[#  24]+0.224*[#  25]+0.224*[#  26]+0.017*[#  10]+0.013*[#  28]
          +0.013*[#  29]+0.013*[#  30]+0.013*[#  32]+0.013*[#  33]+0.013*[#  34]
          +0.009*[#  27]+0.009*[#  31]+0.004*[#  11]+0.004*[#  12]+0.004*[#  13]
          +0.004*[#  19]+0.004*[#  20]+0.004*[#  22]+0.003*[#   6]+0.003*[#   7]
          +0.003*[#   9]+0.002*[#   1]
    |psi|^2 = 0.824
==== e(  30) =    27.79977 eV ==== 
     psi = 0.213*[#  11]+0.213*[#  12]+0.213*[#  13]+0.013*[#  28]+0.013*[#  29]
          +0.013*[#  30]+0.013*[#  32]+0.013*[#  33]+0.013*[#  34]+0.009*[#  27]
          +0.009*[#  31]+0.009*[#  24]+0.009*[#  25]+0.009*[#  26]+0.008*[#   6]
          +0.008*[#   7]+0.008*[#   9]+0.004*[#  23]+0.001*[#  19]+0.001*[#  20]
          +0.001*[#  22]+0.001*[#  14]
    |psi|^2 = 0.799
==== e(  31) =    28.25544 eV ==== 
     psi = 0.497*[#  23]+0.096*[#  24]+0.096*[#  25]+0.096*[#  26]+0.022*[#  14]
          +0.013*[#  11]+0.013*[#  12]+0.013*[#  13]+0.007*[#  27]+0.007*[#  31]
          +0.006*[#  28]+0.006*[#  29]+0.006*[#  30]+0.006*[#  32]+0.006*[#  33]
          +0.006*[#  34]
    |psi|^2 = 0.898
==== e(  32) =    28.57940 eV ==== 
     psi = 0.489*[#  10]+0.083*[#  11]+0.083*[#  12]+0.083*[#  13]+0.019*[#   1]
          +0.014*[#  24]+0.014*[#  25]+0.014*[#  26]+0.006*[#  28]+0.006*[#  29]
          +0.006*[#  30]+0.006*[#  32]+0.006*[#  33]+0.006*[#  34]+0.005*[#  27]
          +0.005*[#  31]+0.001*[#   6]+0.001*[#   7]+0.001*[#   9]
    |psi|^2 = 0.850
==== e(  33) =    31.39813 eV ==== 
     psi = 0.219*[#  24]+0.219*[#  25]+0.219*[#  26]+0.049*[#  11]+0.049*[#  12]
          +0.049*[#  13]+0.008*[#  10]+0.007*[#  28]+0.007*[#  29]+0.007*[#  30]
          +0.007*[#  32]+0.007*[#  33]+0.007*[#  34]+0.005*[#  27]+0.005*[#  31]
          +0.001*[#   6]+0.001*[#   7]+0.001*[#   9]+0.001*[#  15]+0.001*[#  16]
          +0.001*[#  17]
    |psi|^2 = 0.877
==== e(  34) =    31.62754 eV ==== 
     psi = 0.218*[#  11]+0.218*[#  12]+0.218*[#  13]+0.038*[#  24]+0.038*[#  25]
          +0.038*[#  26]+0.007*[#  28]+0.007*[#  29]+0.007*[#  30]+0.007*[#  32]
          +0.007*[#  33]+0.007*[#  34]+0.006*[#  27]+0.006*[#  31]+0.002*[#   6]
          +0.002*[#   7]+0.002*[#   9]+0.002*[#  23]
    |psi|^2 = 0.831
==== e(  35) =    35.90473 eV ==== 
     psi = 0.064*[#  24]+0.064*[#  25]+0.064*[#  26]+0.019*[#  10]+0.008*[#  11]
          +0.008*[#  12]+0.008*[#  13]+0.003*[#  28]+0.003*[#  29]+0.003*[#  30]
          +0.003*[#  32]+0.003*[#  33]+0.003*[#  34]
    |psi|^2 = 0.261
==== e(  36) =    35.95072 eV ==== 
     psi = 0.071*[#  11]+0.071*[#  12]+0.071*[#  13]+0.012*[#  23]+0.007*[#  24]
          +0.007*[#  25]+0.007*[#  26]+0.003*[#  28]+0.003*[#  29]+0.003*[#  30]
          +0.003*[#  32]+0.003*[#  33]+0.003*[#  34]
    |psi|^2 = 0.268
==== e(  37) =    40.63132 eV ==== 
     psi = 0.018*[#  24]+0.018*[#  25]+0.018*[#  26]+0.008*[#  10]+0.003*[#  27]
          +0.003*[#  31]
    |psi|^2 = 0.073
==== e(  38) =    40.76529 eV ==== 
     psi = 0.021*[#  11]+0.021*[#  12]+0.021*[#  13]+0.008*[#  23]+0.003*[#  27]
          +0.003*[#  31]
    |psi|^2 = 0.082
==== e(  39) =    41.89287 eV ==== 
     psi = 0.004*[#  11]+0.004*[#  12]+0.004*[#  13]
    |psi|^2 = 0.017
==== e(  40) =    41.97316 eV ==== 
     psi = 0.004*[#  24]+0.004*[#  25]+0.004*[#  26]
    |psi|^2 = 0.016

 k =  -0.2301441596 -0.2301441596 -0.2301441596
==== e(   1) =   -80.98998 eV ==== 
     psi = 0.963*[#  14]+0.010*[#  11]+0.010*[#  12]+0.010*[#  13]
    |psi|^2 = 1.000
==== e(   2) =   -77.92336 eV ==== 
     psi = 0.962*[#   1]+0.010*[#  24]+0.010*[#  25]+0.010*[#  26]
    |psi|^2 = 1.000
==== e(   3) =   -44.49523 eV ==== 
     psi = 0.332*[#  15]+0.332*[#  16]+0.332*[#  17]
    |psi|^2 = 1.000
==== e(   4) =   -44.30201 eV ==== 
     psi = 0.330*[#  15]+0.330*[#  16]+0.330*[#  17]+0.003*[#  24]+0.003*[#  25]
          +0.003*[#  26]
    |psi|^2 = 1.000
==== e(   5) =   -44.30201 eV ==== 
     psi = 0.330*[#  15]+0.330*[#  16]+0.330*[#  17]+0.003*[#  24]+0.003*[#  25]
          +0.003*[#  26]
    |psi|^2 = 1.000
==== e(   6) =   -41.45993 eV ==== 
     psi = 0.332*[#   2]+0.332*[#   3]+0.332*[#   4]
    |psi|^2 = 1.000
==== e(   7) =   -41.39997 eV ==== 
     psi = 0.330*[#   2]+0.330*[#   3]+0.330*[#   4]+0.003*[#  11]+0.003*[#  12]
          +0.003*[#  13]
    |psi|^2 = 1.000
==== e(   8) =   -41.39997 eV ==== 
     psi = 0.330*[#   2]+0.330*[#   3]+0.330*[#   4]+0.003*[#  11]+0.003*[#  12]
          +0.003*[#  13]
    |psi|^2 = 1.000
==== e(   9) =    -4.80874 eV ==== 
     psi = 0.302*[#  27]+0.302*[#  31]+0.114*[#  23]+0.089*[#  11]+0.089*[#  12]
          +0.089*[#  13]+0.009*[#  14]
    |psi|^2 = 1.000
==== e(  10) =    -4.79550 eV ==== 
     psi = 0.303*[#  27]+0.303*[#  31]+0.111*[#  10]+0.090*[#  24]+0.090*[#  25]
          +0.090*[#  26]+0.009*[#   1]
    |psi|^2 = 1.000
==== e(  11) =     8.12839 eV ==== 
     psi = 0.215*[#  23]+0.097*[#  28]+0.097*[#  29]+0.097*[#  30]+0.097*[#  32]
          +0.097*[#  33]+0.097*[#  34]+0.051*[#  19]+0.051*[#  20]+0.051*[#  22]
          +0.020*[#  27]+0.020*[#  31]+0.004*[#  14]+0.002*[#  11]+0.002*[#  12]
          +0.002*[#  13]
    |psi|^2 = 0.999
==== e(  12) =     8.32200 eV ==== 
     psi = 0.223*[#  10]+0.106*[#  28]+0.106*[#  29]+0.106*[#  30]+0.106*[#  32]
          +0.106*[#  33]+0.106*[#  34]+0.029*[#   6]+0.029*[#   7]+0.029*[#   9]
          +0.020*[#  27]+0.020*[#  31]+0.004*[#   1]+0.002*[#  24]+0.002*[#  25]
          +0.002*[#  26]
    |psi|^2 = 0.998
==== e(  13) =    10.67497 eV ==== 
     psi = 0.239*[#  18]+0.239*[#  21]+0.075*[#  28]+0.075*[#  29]+0.075*[#  30]
          +0.075*[#  32]+0.075*[#  33]+0.075*[#  34]+0.023*[#  19]+0.023*[#  20]
          +0.023*[#  22]
    |psi|^2 = 0.998
==== e(  14) =    10.67497 eV ==== 
     psi = 0.239*[#  18]+0.239*[#  21]+0.075*[#  28]+0.075*[#  29]+0.075*[#  30]
          +0.075*[#  32]+0.075*[#  33]+0.075*[#  34]+0.023*[#  19]+0.023*[#  20]
          +0.023*[#  22]
    |psi|^2 = 0.998
==== e(  15) =    11.59889 eV ==== 
     psi = 0.120*[#  28]+0.120*[#  29]+0.120*[#  30]+0.120*[#  32]+0.120*[#  33]
          +0.120*[#  34]+0.114*[#   5]+0.114*[#   8]+0.014*[#   6]+0.014*[#   7]
          +0.014*[#   9]+0.001*[#  24]+0.001*[#  25]+0.001*[#  26]
    |psi|^2 = 0.996
==== e(  16) =    11.59890 eV ==== 
     psi = 0.120*[#  28]+0.120*[#  29]+0.120*[#  30]+0.120*[#  32]+0.120*[#  33]
          +0.120*[#  34]+0.114*[#   5]+0.114*[#   8]+0.014*[#   6]+0.014*[#   7]
          +0.014*[#   9]+0.001*[#  24]+0.001*[#  25]+0.001*[#  26]
    |psi|^2 = 0.996
==== e(  17) =    12.86306 eV ==== 
     psi = 0.275*[#  19]+0.275*[#  20]+0.275*[#  22]+0.026*[#  28]+0.026*[#  29]
          +0.026*[#  30]+0.026*[#  32]+0.026*[#  33]+0.026*[#  34]+0.007*[#  23]
          +0.004*[#  27]+0.004*[#  31]
    |psi|^2 = 0.997
==== e(  18) =    12.90026 eV ==== 
     psi = 0.305*[#  19]+0.305*[#  20]+0.305*[#  22]+0.036*[#  18]+0.036*[#  21]
          +0.002*[#  28]+0.002*[#  29]+0.002*[#  30]+0.002*[#  32]+0.002*[#  33]
          +0.002*[#  34]
    |psi|^2 = 0.998
==== e(  19) =    12.90026 eV ==== 
     psi = 0.305*[#  19]+0.305*[#  20]+0.305*[#  22]+0.036*[#  18]+0.036*[#  21]
          +0.002*[#  28]+0.002*[#  29]+0.002*[#  30]+0.002*[#  32]+0.002*[#  33]
          +0.002*[#  34]
    |psi|^2 = 0.998
==== e(  20) =    14.80776 eV ==== 
     psi = 0.289*[#   6]+0.289*[#   7]+0.289*[#   9]+0.019*[#  28]+0.019*[#  29]
          +0.019*[#  30]+0.019*[#  32]+0.019*[#  33]+0.019*[#  34]+0.002*[#  27]
          +0.002*[#  31]
    |psi|^2 = 0.990
==== e(  21) =    14.86202 eV ==== 
     psi = 0.224*[#  18]+0.224*[#  21]+0.089*[#  28]+0.089*[#  29]+0.089*[#  30]
          +0.089*[#  32]+0.089*[#  33]+0.089*[#  34]+0.004*[#  19]+0.004*[#  20]
          +0.004*[#  22]+0.002*[#  11]+0.002*[#  12]+0.002*[#  13]
    |psi|^2 = 0.998
==== e(  22) =    14.86202 eV ==== 
     psi = 0.224*[#  18]+0.224*[#  21]+0.089*[#  28]+0.089*[#  29]+0.089*[#  30]
          +0.089*[#  32]+0.089*[#  33]+0.089*[#  34]+0.004*[#  19]+0.004*[#  20]
          +0.004*[#  22]+0.002*[#  11]+0.002*[#  12]+0.002*[#  13]
    |psi|^2 = 0.998
==== e(  23) =    15.05626 eV ==== 
     psi = 0.317*[#   6]+0.317*[#   7]+0.317*[#   9]+0.006*[#   5]+0.006*[#   8]
          +0.005*[#  28]+0.005*[#  29]+0.005*[#  30]+0.005*[#  32]+0.005*[#  33]
          +0.005*[#  34]
    |psi|^2 = 0.994
==== e(  24) =    15.05626 eV ==== 
     psi = 0.317*[#   6]+0.317*[#   7]+0.317*[#   9]+0.006*[#   5]+0.006*[#   8]
          +0.005*[#  28]+0.005*[#  29]+0.005*[#  30]+0.005*[#  32]+0.005*[#  33]
          +0.005*[#  34]
    |psi|^2 = 0.994
==== e(  25) =    16.80759 eV ==== 
     psi = 0.377*[#   5]+0.377*[#   8]+0.039*[#  28]+0.039*[#  29]+0.039*[#  30]
          +0.039*[#  32]+0.039*[#  33]+0.039*[#  34]+0.002*[#  24]+0.002*[#  25]
          +0.002*[#  26]
    |psi|^2 = 0.997
==== e(  26) =    16.80760 eV ==== 
     psi = 0.377*[#   5]+0.377*[#   8]+0.039*[#  28]+0.039*[#  29]+0.039*[#  30]
          +0.039*[#  32]+0.039*[#  33]+0.039*[#  34]+0.002*[#  24]+0.002*[#  25]
          +0.002*[#  26]
    |psi|^2 = 0.997
==== e(  27) =    19.74406 eV ==== 
     psi = 0.311*[#  23]+0.143*[#  27]+0.143*[#  31]+0.072*[#  11]+0.072*[#  12]
          +0.072*[#  13]+0.029*[#  28]+0.029*[#  29]+0.029*[#  30]+0.029*[#  32]
          +0.029*[#  33]+0.029*[#  34]+0.004*[#  14]+0.001*[#  19]+0.001*[#  20]
          +0.001*[#  22]
    |psi|^2 = 0.993
==== e(  28) =    19.97165 eV ==== 
     psi = 0.288*[#  10]+0.150*[#  27]+0.150*[#  31]+0.080*[#  24]+0.080*[#  25]
          +0.080*[#  26]+0.025*[#  28]+0.025*[#  29]+0.025*[#  30]+0.025*[#  32]
          +0.025*[#  33]+0.025*[#  34]+0.006*[#   1]+0.003*[#   6]+0.003*[#   7]
          +0.003*[#   9]
    |psi|^2 = 0.991
==== e(  29) =    26.62783 eV ==== 
     psi = 0.291*[#  23]+0.128*[#  11]+0.128*[#  12]+0.128*[#  13]+0.020*[#  27]
          +0.020*[#  31]+0.015*[#  14]+0.011*[#  28]+0.011*[#  29]+0.011*[#  30]
          +0.011*[#  32]+0.011*[#  33]+0.011*[#  34]+0.005*[#  19]+0.005*[#  20]
          +0.005*[#  22]
    |psi|^2 = 0.816
==== e(  30) =    26.88148 eV ==== 
     psi = 0.317*[#  10]+0.123*[#  24]+0.123*[#  25]+0.123*[#  26]+0.017*[#  27]
          +0.017*[#  31]+0.015*[#   1]+0.012*[#  28]+0.012*[#  29]+0.012*[#  30]
          +0.012*[#  32]+0.012*[#  33]+0.012*[#  34]+0.011*[#   6]+0.011*[#   7]
          +0.011*[#   9]
    |psi|^2 = 0.839
==== e(  31) =    34.26995 eV ==== 
     psi = 0.233*[#  24]+0.233*[#  25]+0.233*[#  26]+0.002*[#  15]+0.002*[#  16]
          +0.002*[#  17]+0.001*[#   6]+0.001*[#   7]+0.001*[#   9]
    |psi|^2 = 0.715
==== e(  32) =    34.26995 eV ==== 
     psi = 0.233*[#  24]+0.233*[#  25]+0.233*[#  26]+0.002*[#  15]+0.002*[#  16]
          +0.002*[#  17]+0.001*[#   6]+0.001*[#   7]+0.001*[#   9]
    |psi|^2 = 0.715
==== e(  33) =    34.42311 eV ==== 
     psi = 0.214*[#  11]+0.214*[#  12]+0.214*[#  13]+0.002*[#   2]+0.002*[#   3]
          +0.002*[#   4]
    |psi|^2 = 0.653
==== e(  34) =    34.42311 eV ==== 
     psi = 0.214*[#  11]+0.214*[#  12]+0.214*[#  13]+0.002*[#   2]+0.002*[#   3]
          +0.002*[#   4]
    |psi|^2 = 0.653
==== e(  35) =    37.38702 eV ==== 
     psi = 0.023*[#  23]+0.012*[#  11]+0.012*[#  12]+0.012*[#  13]+0.002*[#  27]
          +0.002*[#  31]+0.001*[#  14]
    |psi|^2 = 0.072
==== e(  36) =    37.41703 eV ==== 
     psi = 0.025*[#  10]+0.011*[#  24]+0.011*[#  25]+0.011*[#  26]+0.002*[#  27]
          +0.002*[#  31]+0.001*[#   1]
    |psi|^2 = 0.068
==== e(  37) =    39.51509 eV ==== 
     psi = 0.050*[#  11]+0.050*[#  12]+0.050*[#  13]
    |psi|^2 = 0.151
==== e(  38) =    39.51509 eV ==== 
     psi = 0.050*[#  11]+0.050*[#  12]+0.050*[#  13]
    |psi|^2 = 0.151
==== e(  39) =    39.73839 eV ==== 
     psi = 0.042*[#  24]+0.042*[#  25]+0.042*[#  26]+0.001*[#   6]+0.001*[#   7]
          +0.001*[#   9]
    |psi|^2 = 0.134
==== e(  40) =    39.73839 eV ==== 
     psi = 0.042*[#  24]+0.042*[#  25]+0.042*[#  26]+0.001*[#   6]+0.001*[#   7]
          +0.001*[#   9]
    |psi|^2 = 0.134

Lowdin Charges: 

     Atom #   1: total charge =  16.6642, s =  2.3228, p =  6.9583, d =  7.3830, 
                 spin up      =   9.4967, s =  1.1593, 
                 spin up      =   9.4967, p =  3.4656, pz=  1.1552, px=  1.1552, py=  1.1552, 
                 spin up      =   9.4967, d =  4.8718, dz2=  0.9579, dxz=  0.9853, dyz=  0.9853, dx2-y2=  0.9579, dxy=  0.9853, 
                 spin down    =   7.1674, s =  1.1635, 
                 spin down    =   7.1674, p =  3.4927, pz=  1.1642, px=  1.1642, py=  1.1642, 
                 spin down    =   7.1674, d =  2.5112, dz2=  0.2541, dxz=  0.6676, dyz=  0.6676, dx2-y2=  0.2541, dxy=  0.6676, 
                 polarization =   2.3293, s = -0.0042, p = -0.0271, d =  2.3606, 
     Atom #   2: total charge =  16.6679, s =  2.3228, p =  6.9584, d =  7.3867, 
                 spin up      =   7.1711, s =  1.1635, 
                 spin up      =   7.1711, p =  3.4927, pz=  1.1642, px=  1.1642, py=  1.1642, 
                 spin up      =   7.1711, d =  2.5148, dz2=  0.2543, dxz=  0.6687, dyz=  0.6687, dx2-y2=  0.2543, dxy=  0.6687, 
                 spin down    =   9.4968, s =  1.1593, 
                 spin down    =   9.4968, p =  3.4656, pz=  1.1552, px=  1.1552, py=  1.1552, 
                 spin down    =   9.4968, d =  4.8719, dz2=  0.9580, dxz=  0.9853, dyz=  0.9853, dx2-y2=  0.9580, dxy=  0.9853, 
                 polarization =  -2.3258, s =  0.0042, p =  0.0271, d = -2.3571, 
     Atom #   3: total charge =   6.2915, s =  1.6106, p =  4.6809, d =  0.0000, 
                 spin up      =   3.1458, s =  0.8053, 
                 spin up      =   3.1458, p =  2.3405, pz=  0.7802, px=  0.7802, py=  0.7802, 
                 spin up      =   3.1458, d =  0.0000, dz2=  0.0000, dxz=  0.0000, dyz=  0.0000, dx2-y2=  0.0000, dxy=  0.0000, 
                 spin down    =   3.1457, s =  0.8053, 
                 spin down    =   3.1457, p =  2.3405, pz=  0.7802, px=  0.7802, py=  0.7802, 
                 spin down    =   3.1457, d =  0.0000, dz2=  0.0000, dxz=  0.0000, dyz=  0.0000, dx2-y2=  0.0000, dxy=  0.0000, 
                 polarization =   0.0000, s =  0.0000, p =  0.0000, d =  0.0000, 
     Atom #   4: total charge =   6.2915, s =  1.6106, p =  4.6809, d =  0.0000, 
                 spin up      =   3.1458, s =  0.8053, 
                 spin up      =   3.1458, p =  2.3405, pz=  0.7802, px=  0.7802, py=  0.7802, 
                 spin up      =   3.1458, d =  0.0000, dz2=  0.0000, dxz=  0.0000, dyz=  0.0000, dx2-y2=  0.0000, dxy=  0.0000, 
                 spin down    =   3.1457, s =  0.8053, 
                 spin down    =   3.1457, p =  2.3405, pz=  0.7802, px=  0.7802, py=  0.7802, 
                 spin down    =   3.1457, d =  0.0000, dz2=  0.0000, dxz=  0.0000, dyz=  0.0000, dx2-y2=  0.0000, dxy=  0.0000, 
                 polarization =   0.0000, s =  0.0000, p =  0.0000, d =  0.0000, 
     Spilling Parameter:   0.0018

     PROJWFC      :      2.52s CPU      2.72s WALL


   This run was terminated on:  16: 8: 1  12Jul2025            

=------------------------------------------------------------------------------=
   JOB DONE.
=------------------------------------------------------------------------------=
