
     Program PWSCF v.7.4.1 starts on 12Jul2025 at 16: 5:29 

     This program is part of the open-source Quantum ESPRESSO suite
     for quantum simulation of materials; please cite
         "P. Giannozzi et al., J. Phys.:Condens. Matter 21 395502 (2009);
         "P. Giannozzi et al., J. Phys.:Condens. Matter 29 465901 (2017);
         "P. Giannozzi et al., J. Chem. Phys. 152 154105 (2020);
          URL http://www.quantum-espresso.org", 
     in publications or presentations arising from this work. More details at
     http://www.quantum-espresso.org/quote

     Parallel version (MPI), running on     4 processors

     MPI processes distributed on     1 nodes
     308 MiB available memory on the printing compute node when the environment starts

     Waiting for input...
     Reading input from standard input

     Current dimensions of program PWSCF are:
     Max number of different atomic species (ntypx) = 10
     Max number of k-points (npk) =  40000
     Max angular momentum in pseudopotentials (lmaxx) =  4
     file O.pbesol-n-kjpaw_psl.0.1.UPF: wavefunction(s)  2P renormalized
     Message from routine volume:
     axis vectors are left-handed

     Atomic positions and unit cell read from directory:
     ./tmp/CoO.save/

     Message from routine volume:
     axis vectors are left-handed
     Message from routine setup:
     using ibrav=0 with symmetry is DISCOURAGED, use correct ibrav instead

     R & G space division:  proc/nbgrp/npool/nimage =       4
     Subspace diagonalization in iterative solution of the eigenvalue problem:
     a serial algorithm will be used


     Parallelization info
     --------------------
     sticks:   dense  smooth     PW     G-vecs:    dense   smooth      PW
     Min         291     146     51                 4642     1635     350
     Max         292     147     52                 4643     1636     351
     Sum        1167     587    207                18569     6541    1403

     Using Slab Decomposition



     bravais-lattice index     =            0
     lattice parameter (alat)  =       8.0000  a.u.
     unit-cell volume          =     235.7543 (a.u.)^3
     number of atoms/cell      =            4
     number of atomic types    =            3
     number of electrons       =        46.00
     number of Kohn-Sham states=           40
     kinetic-energy cutoff     =      35.0000  Ry
     charge density cutoff     =     280.0000  Ry
     Exchange-correlation= SLA  PW   PSX  PSC
                           (   1   4  10   8   0   0   0)

     celldm(1)=   8.000000  celldm(2)=   0.000000  celldm(3)=   0.000000
     celldm(4)=   0.000000  celldm(5)=   0.000000  celldm(6)=   0.000000

     crystal axes: (cart. coord. in units of alat)
               a(1) = (   0.570726   0.570726   1.031099 )  
               a(2) = (   0.570726   1.031099   0.570726 )  
               a(3) = (   1.031099   0.570726   0.570726 )  

     reciprocal axes: (cart. coord. in units 2 pi/alat)
               b(1) = ( -0.570621 -0.570621  1.601531 )  
               b(2) = ( -0.570621  1.601531 -0.570621 )  
               b(3) = (  1.601531 -0.570621 -0.570621 )  


     PseudoPot. # 1 for Co read from file:
     ./co_pbesol_v1.2.uspp.F.UPF
     MD5 check sum: 3b4cd4e7cc7df4da9fdede0fd33e2193
     Pseudo is Ultrasoft + core correction, Zval = 17.0
     Generated by new atomic code, or converted to UPF format
     Using radial grid of  863 points,  6 beta functions with: 
                l(1) =   0
                l(2) =   0
                l(3) =   1
                l(4) =   1
                l(5) =   2
                l(6) =   2
     Q(r) pseudized with  8 coefficients,  rinner =    1.200   1.200   1.200
                                                       1.200   1.200

     PseudoPot. # 2 for Co read from file:
     ./co_pbesol_v1.2.uspp.F.UPF
     MD5 check sum: 3b4cd4e7cc7df4da9fdede0fd33e2193
     Pseudo is Ultrasoft + core correction, Zval = 17.0
     Generated by new atomic code, or converted to UPF format
     Using radial grid of  863 points,  6 beta functions with: 
                l(1) =   0
                l(2) =   0
                l(3) =   1
                l(4) =   1
                l(5) =   2
                l(6) =   2
     Q(r) pseudized with  8 coefficients,  rinner =    1.200   1.200   1.200
                                                       1.200   1.200

     PseudoPot. # 3 for O  read from file:
     ./O.pbesol-n-kjpaw_psl.0.1.UPF
     MD5 check sum: 126339daddaa87477ab44acfa0b5aa00
     Pseudo is Projector augmented-wave + core cor, Zval =  6.0
     Generated using "atomic" code by A. Dal Corso  v.6.0 svn rev. 13079
     Shape of augmentation charge: BESSEL
     Using radial grid of 1095 points,  4 beta functions with: 
                l(1) =   0
                l(2) =   0
                l(3) =   1
                l(4) =   1
     Q(r) pseudized with 0 coefficients 


     atomic species   valence    mass     pseudopotential
     Co1              17.00    58.93319     Co( 1.00)
     Co2              17.00    58.93319     Co( 1.00)
     O                 6.00    15.99900     O ( 1.00)

     Starting magnetic structure 
     atomic species   magnetization
     Co1             0.500
     Co2            -0.500
     O               0.000

     12 Sym. Ops., with inversion, found


                                    s                        frac. trans.

      isym =  1     identity                                     

 cryst.   s( 1) = (     1          0          0      )
                  (     0          1          0      )
                  (     0          0          1      )

 cart.    s( 1) = (  1.0000000  0.0000000  0.0000000 )
                  (  0.0000000  1.0000000  0.0000000 )
                  (  0.0000000  0.0000000  1.0000000 )


      isym =  2     180 deg rotation - cart. axis [1,-1,0]       

 cryst.   s( 2) = (    -1          0          0      )
                  (     0          0         -1      )
                  (     0         -1          0      )

 cart.    s( 2) = ( -0.0000000 -1.0000000 -0.0000000 )
                  ( -1.0000000 -0.0000000 -0.0000000 )
                  ( -0.0000000 -0.0000000 -1.0000000 )


      isym =  3     180 deg rotation - cart. axis [-1,0,1]       

 cryst.   s( 3) = (     0          0         -1      )
                  (     0         -1          0      )
                  (    -1          0          0      )

 cart.    s( 3) = ( -0.0000000 -0.0000000 -1.0000000 )
                  ( -0.0000000 -1.0000000 -0.0000000 )
                  ( -1.0000000 -0.0000000 -0.0000000 )


      isym =  4     180 deg rotation - cart. axis [0,1,-1]       

 cryst.   s( 4) = (     0         -1          0      )
                  (    -1          0          0      )
                  (     0          0         -1      )

 cart.    s( 4) = ( -1.0000000 -0.0000000 -0.0000000 )
                  ( -0.0000000 -0.0000000 -1.0000000 )
                  ( -0.0000000 -1.0000000 -0.0000000 )


      isym =  5     120 deg rotation - cart. axis [-1,-1,-1]     

 cryst.   s( 5) = (     0          1          0      )
                  (     0          0          1      )
                  (     1          0          0      )

 cart.    s( 5) = (  0.0000000  1.0000000  0.0000000 )
                  (  0.0000000  0.0000000  1.0000000 )
                  (  1.0000000  0.0000000  0.0000000 )


      isym =  6     120 deg rotation - cart. axis [1,1,1]        

 cryst.   s( 6) = (     0          0          1      )
                  (     1          0          0      )
                  (     0          1          0      )

 cart.    s( 6) = (  0.0000000  0.0000000  1.0000000 )
                  (  1.0000000  0.0000000  0.0000000 )
                  (  0.0000000  1.0000000  0.0000000 )


      isym =  7     inversion                                    

 cryst.   s( 7) = (    -1          0          0      )
                  (     0         -1          0      )
                  (     0          0         -1      )

 cart.    s( 7) = ( -1.0000000 -0.0000000 -0.0000000 )
                  ( -0.0000000 -1.0000000 -0.0000000 )
                  ( -0.0000000 -0.0000000 -1.0000000 )


      isym =  8     inv. 180 deg rotation - cart. axis [1,-1,0]  

 cryst.   s( 8) = (     1          0          0      )
                  (     0          0          1      )
                  (     0          1          0      )

 cart.    s( 8) = (  0.0000000  1.0000000  0.0000000 )
                  (  1.0000000  0.0000000  0.0000000 )
                  (  0.0000000  0.0000000  1.0000000 )


      isym =  9     inv. 180 deg rotation - cart. axis [-1,0,1]  

 cryst.   s( 9) = (     0          0          1      )
                  (     0          1          0      )
                  (     1          0          0      )

 cart.    s( 9) = (  0.0000000  0.0000000  1.0000000 )
                  (  0.0000000  1.0000000  0.0000000 )
                  (  1.0000000  0.0000000  0.0000000 )


      isym = 10     inv. 180 deg rotation - cart. axis [0,1,-1]  

 cryst.   s(10) = (     0          1          0      )
                  (     1          0          0      )
                  (     0          0          1      )

 cart.    s(10) = (  1.0000000  0.0000000  0.0000000 )
                  (  0.0000000  0.0000000  1.0000000 )
                  (  0.0000000  1.0000000  0.0000000 )


      isym = 11     inv. 120 deg rotation - cart. axis [-1,-1,-1]

 cryst.   s(11) = (     0         -1          0      )
                  (     0          0         -1      )
                  (    -1          0          0      )

 cart.    s(11) = ( -0.0000000 -1.0000000 -0.0000000 )
                  ( -0.0000000 -0.0000000 -1.0000000 )
                  ( -1.0000000 -0.0000000 -0.0000000 )


      isym = 12     inv. 120 deg rotation - cart. axis [1,1,1]   

 cryst.   s(12) = (     0          0         -1      )
                  (    -1          0          0      )
                  (     0         -1          0      )

 cart.    s(12) = ( -0.0000000 -0.0000000 -1.0000000 )
                  ( -1.0000000 -0.0000000 -0.0000000 )
                  ( -0.0000000 -1.0000000 -0.0000000 )


   Cartesian axes

     site n.     atom                  positions (alat units)
         1        Co1    tau(   1) = (   0.0000000   0.0000000   0.0000000  )
         2        Co2    tau(   2) = (   1.0862757   1.0862757   1.0862757  )
         3        O      tau(   3) = (   0.5431378   0.5431378   0.5431378  )
         4        O      tau(   4) = (   1.6294135   1.6294135   1.6294135  )

   Crystallographic axes

     site n.     atom                  positions (cryst. coord.)
         1        Co1    tau(   1) = (  0.0000000  0.0000000  0.0000000  )
         2        Co2    tau(   2) = (  0.5000000  0.5000000  0.5000000  )
         3        O      tau(   3) = (  0.2500000  0.2500000  0.2500000  )
         4        O      tau(   4) = (  0.7500000  0.7500000  0.7500000  )

     number of k points=    32 (tetrahedron method)
                       cart. coord. in units 2pi/alat
        k(    1) = (   0.0000000   0.0000000   0.0000000), wk =   0.0046296
        k(    2) = (   0.2669218  -0.0951035  -0.0951035), wk =   0.0277778
        k(    3) = (   0.5338435  -0.1902071  -0.1902071), wk =   0.0277778
        k(    4) = (  -0.8007653   0.2853106   0.2853106), wk =   0.0138889
        k(    5) = (   0.1718182   0.1718182  -0.1902071), wk =   0.0277778
        k(    6) = (   0.4387400   0.0767147  -0.2853106), wk =   0.0555556
        k(    7) = (  -0.8958688   0.5522323   0.1902071), wk =   0.0555556
        k(    8) = (  -0.6289471   0.4571288   0.0951035), wk =   0.0555556
        k(    9) = (  -0.3620253   0.3620253  -0.0000000), wk =   0.0277778
        k(   10) = (   0.3436365   0.3436365  -0.3804141), wk =   0.0277778
        k(   11) = (  -0.9909724   0.8191541   0.0951035), wk =   0.0555556
        k(   12) = (  -0.7240506   0.7240506   0.0000000), wk =   0.0277778
        k(   13) = (  -0.5154547  -0.5154547   0.5706212), wk =   0.0138889
        k(   14) = (   0.0767147   0.0767147   0.0767147), wk =   0.0092593
        k(   15) = (   0.3436365  -0.0183888  -0.0183888), wk =   0.0277778
        k(   16) = (  -0.9909724   0.4571288   0.4571288), wk =   0.0277778
        k(   17) = (  -0.7240506   0.3620253   0.3620253), wk =   0.0277778
        k(   18) = (  -0.4571288   0.2669218   0.2669218), wk =   0.0277778
        k(   19) = (   0.2485330   0.2485330  -0.1134923), wk =   0.0277778
        k(   20) = (  -1.0860759   0.7240506   0.3620253), wk =   0.0555556
        k(   21) = (  -0.8191541   0.6289471   0.2669218), wk =   0.0555556
        k(   22) = (  -0.5522323   0.5338435   0.1718182), wk =   0.0555556
        k(   23) = (  -0.6105583  -0.6105583   0.8375429), wk =   0.0277778
        k(   24) = (  -0.3436365  -0.7056618   0.7424394), wk =   0.0555556
        k(   25) = (  -0.0767147  -0.8007653   0.6473359), wk =   0.0277778
        k(   26) = (  -0.4387400  -0.4387400   0.6473359), wk =   0.0277778
        k(   27) = (   0.1534294   0.1534294   0.1534294), wk =   0.0092593
        k(   28) = (  -1.1811794   0.6289471   0.6289471), wk =   0.0277778
        k(   29) = (  -0.9142576   0.5338435   0.5338435), wk =   0.0277778
        k(   30) = (  -0.7056618  -0.7056618   1.1044647), wk =   0.0277778
        k(   31) = (  -0.4387400  -0.8007653   1.0093612), wk =   0.0277778
        k(   32) = (  -0.2301442  -0.2301442  -0.2301442), wk =   0.0046296

                       cryst. coord.
        k(    1) = (   0.0000000   0.0000000   0.0000000), wk =   0.0046296
        k(    2) = (   0.0000000   0.0000000   0.1666667), wk =   0.0277778
        k(    3) = (   0.0000000   0.0000000   0.3333333), wk =   0.0277778
        k(    4) = (  -0.0000000  -0.0000000  -0.5000000), wk =   0.0138889
        k(    5) = (   0.0000000   0.1666667   0.1666667), wk =   0.0277778
        k(    6) = (   0.0000000   0.1666667   0.3333333), wk =   0.0555556
        k(    7) = (  -0.0000000   0.1666667  -0.5000000), wk =   0.0555556
        k(    8) = (  -0.0000000   0.1666667  -0.3333333), wk =   0.0555556
        k(    9) = (   0.0000000   0.1666667  -0.1666667), wk =   0.0277778
        k(   10) = (   0.0000000   0.3333333   0.3333333), wk =   0.0277778
        k(   11) = (  -0.0000000   0.3333333  -0.5000000), wk =   0.0555556
        k(   12) = (  -0.0000000   0.3333333  -0.3333333), wk =   0.0277778
        k(   13) = (  -0.0000000  -0.5000000  -0.5000000), wk =   0.0138889
        k(   14) = (   0.1666667   0.1666667   0.1666667), wk =   0.0092593
        k(   15) = (   0.1666667   0.1666667   0.3333333), wk =   0.0277778
        k(   16) = (   0.1666667   0.1666667  -0.5000000), wk =   0.0277778
        k(   17) = (   0.1666667   0.1666667  -0.3333333), wk =   0.0277778
        k(   18) = (   0.1666667   0.1666667  -0.1666667), wk =   0.0277778
        k(   19) = (   0.1666667   0.3333333   0.3333333), wk =   0.0277778
        k(   20) = (   0.1666667   0.3333333  -0.5000000), wk =   0.0555556
        k(   21) = (   0.1666667   0.3333333  -0.3333333), wk =   0.0555556
        k(   22) = (   0.1666667   0.3333333  -0.1666667), wk =   0.0555556
        k(   23) = (   0.1666667  -0.5000000  -0.5000000), wk =   0.0277778
        k(   24) = (   0.1666667  -0.5000000  -0.3333333), wk =   0.0555556
        k(   25) = (   0.1666667  -0.5000000  -0.1666667), wk =   0.0277778
        k(   26) = (   0.1666667  -0.3333333  -0.3333333), wk =   0.0277778
        k(   27) = (   0.3333333   0.3333333   0.3333333), wk =   0.0092593
        k(   28) = (   0.3333333   0.3333333  -0.5000000), wk =   0.0277778
        k(   29) = (   0.3333333   0.3333333  -0.3333333), wk =   0.0277778
        k(   30) = (   0.3333333  -0.5000000  -0.5000000), wk =   0.0277778
        k(   31) = (   0.3333333  -0.5000000  -0.3333333), wk =   0.0277778
        k(   32) = (  -0.5000000  -0.5000000  -0.5000000), wk =   0.0046296

     Dense  grid:    18569 G-vectors     FFT dimensions: (  60,  60,  60)

     Smooth grid:     6541 G-vectors     FFT dimensions: (  40,  40,  40)

     Dynamical RAM for                 wfc:       0.13 MB

     Dynamical RAM for     wfc (w. buffer):       0.13 MB

     Dynamical RAM for           str. fact:       0.21 MB

     Dynamical RAM for           local pot:       0.00 MB

     Dynamical RAM for          nlocal pot:       0.16 MB

     Dynamical RAM for                qrad:       4.03 MB

     Dynamical RAM for          rho,v,vnew:       2.90 MB

     Dynamical RAM for           G-vectors:       0.28 MB

     Dynamical RAM for          h,s,v(r/c):       0.29 MB

     Dynamical RAM for          <psi|beta>:       0.03 MB

     Dynamical RAM for                 psi:       0.25 MB

     Dynamical RAM for                hpsi:       0.25 MB

     Dynamical RAM for                spsi:       0.25 MB

     Dynamical RAM for      wfcinit/wfcrot:       0.29 MB

     Dynamical RAM for           addusdens:      13.39 MB

     Estimated static dynamical RAM per process >      10.46 MB

     Estimated max dynamical RAM per process >      23.85 MB

     Estimated total dynamical RAM >      95.41 MB

     Check: negative core charge=   -0.000041
     Generating pointlists ...
     new r_m :   0.2019 (alat units)  1.6154 (a.u.) for type    1
     new r_m :   0.2019 (alat units)  1.6154 (a.u.) for type    2
     new r_m :   0.2019 (alat units)  1.6154 (a.u.) for type    3

     The potential is recalculated from file :
     ./tmp/CoO.save/charge-density

     Starting wfcs are   34 randomized atomic wfcs +    6 random wfcs
     Checking if some PAW data can be deallocated... 
       PAW data deallocated on    2 nodes for type:  3

     Band Structure Calculation
     Davidson diagonalization with overlap

     Computing kpt #:     1  of    64
     total cpu time spent up to now is        1.8 secs

     Computing kpt #:     2  of    64
     total cpu time spent up to now is        2.5 secs

     Computing kpt #:     3  of    64
     total cpu time spent up to now is        3.1 secs

     Computing kpt #:     4  of    64
     total cpu time spent up to now is        3.8 secs

     Computing kpt #:     5  of    64
     total cpu time spent up to now is        4.4 secs

     Computing kpt #:     6  of    64
     total cpu time spent up to now is        5.1 secs

     Computing kpt #:     7  of    64
     total cpu time spent up to now is        5.6 secs

     Computing kpt #:     8  of    64
     total cpu time spent up to now is        6.2 secs

     Computing kpt #:     9  of    64
     total cpu time spent up to now is        6.8 secs

     Computing kpt #:    10  of    64
     total cpu time spent up to now is        7.4 secs

     Computing kpt #:    11  of    64
     total cpu time spent up to now is        8.2 secs

     Computing kpt #:    12  of    64
     total cpu time spent up to now is        8.7 secs

     Computing kpt #:    13  of    64
     total cpu time spent up to now is        9.3 secs

     Computing kpt #:    14  of    64
     total cpu time spent up to now is       10.0 secs

     Computing kpt #:    15  of    64
     total cpu time spent up to now is       10.7 secs

     Computing kpt #:    16  of    64
     total cpu time spent up to now is       11.4 secs

     Computing kpt #:    17  of    64
     total cpu time spent up to now is       12.0 secs

     Computing kpt #:    18  of    64
     total cpu time spent up to now is       12.7 secs

     Computing kpt #:    19  of    64
     total cpu time spent up to now is       13.5 secs

     Computing kpt #:    20  of    64
     total cpu time spent up to now is       14.2 secs

     Computing kpt #:    21  of    64
     total cpu time spent up to now is       15.0 secs

     Computing kpt #:    22  of    64
     total cpu time spent up to now is       15.6 secs

     Computing kpt #:    23  of    64
     total cpu time spent up to now is       16.2 secs

     Computing kpt #:    24  of    64
     total cpu time spent up to now is       17.1 secs

     Computing kpt #:    25  of    64
     total cpu time spent up to now is       17.7 secs

     Computing kpt #:    26  of    64
     total cpu time spent up to now is       18.4 secs

     Computing kpt #:    27  of    64
     total cpu time spent up to now is       19.2 secs

     Computing kpt #:    28  of    64
     total cpu time spent up to now is       20.1 secs

     Computing kpt #:    29  of    64
     total cpu time spent up to now is       20.8 secs

     Computing kpt #:    30  of    64
     total cpu time spent up to now is       21.5 secs

     Computing kpt #:    31  of    64
     total cpu time spent up to now is       22.3 secs

     Computing kpt #:    32  of    64
     total cpu time spent up to now is       23.0 secs

     Computing kpt #:    33  of    64
     total cpu time spent up to now is       23.7 secs

     Computing kpt #:    34  of    64
     total cpu time spent up to now is       24.4 secs

     Computing kpt #:    35  of    64
     total cpu time spent up to now is       25.2 secs

     Computing kpt #:    36  of    64
     total cpu time spent up to now is       27.2 secs

     Computing kpt #:    37  of    64
     total cpu time spent up to now is       27.9 secs

     Computing kpt #:    38  of    64
     total cpu time spent up to now is       28.7 secs

     Computing kpt #:    39  of    64
     total cpu time spent up to now is       29.4 secs

     Computing kpt #:    40  of    64
     total cpu time spent up to now is       30.1 secs

     Computing kpt #:    41  of    64
     total cpu time spent up to now is       30.8 secs

     Computing kpt #:    42  of    64
     total cpu time spent up to now is       31.5 secs

     Computing kpt #:    43  of    64
     total cpu time spent up to now is       32.2 secs

     Computing kpt #:    44  of    64
     total cpu time spent up to now is       32.8 secs

     Computing kpt #:    45  of    64
     total cpu time spent up to now is       33.5 secs

     Computing kpt #:    46  of    64
     total cpu time spent up to now is       34.2 secs

     Computing kpt #:    47  of    64
     total cpu time spent up to now is       35.0 secs

     Computing kpt #:    48  of    64
     total cpu time spent up to now is       35.7 secs

     Computing kpt #:    49  of    64
     total cpu time spent up to now is       36.4 secs

     Computing kpt #:    50  of    64
     total cpu time spent up to now is       37.1 secs

     Computing kpt #:    51  of    64
     total cpu time spent up to now is       37.9 secs

     Computing kpt #:    52  of    64
     total cpu time spent up to now is       38.6 secs

     Computing kpt #:    53  of    64
     total cpu time spent up to now is       39.3 secs

     Computing kpt #:    54  of    64
     total cpu time spent up to now is       40.0 secs

     Computing kpt #:    55  of    64
     total cpu time spent up to now is       40.5 secs

     Computing kpt #:    56  of    64
     total cpu time spent up to now is       41.2 secs

     Computing kpt #:    57  of    64
     total cpu time spent up to now is       41.8 secs

     Computing kpt #:    58  of    64
     total cpu time spent up to now is       42.4 secs

     Computing kpt #:    59  of    64
     total cpu time spent up to now is       43.2 secs

     Computing kpt #:    60  of    64
     total cpu time spent up to now is       43.9 secs

     Computing kpt #:    61  of    64
     total cpu time spent up to now is       44.5 secs

     Computing kpt #:    62  of    64
     total cpu time spent up to now is       45.2 secs

     Computing kpt #:    63  of    64
     total cpu time spent up to now is       45.8 secs

     Computing kpt #:    64  of    64
     total cpu time spent up to now is       46.5 secs

     ethr =  2.17E-13,  avg # of iterations = 30.0

     total cpu time spent up to now is       46.7 secs

     End of band structure calculation

 ------ SPIN UP ------------


          k = 0.0000 0.0000 0.0000 (   811 PWs)   bands (ev):

   -80.9881 -77.9252 -44.4933 -44.3002 -44.3002 -41.4614 -41.4017 -41.4017
    -5.3266  -4.1850   6.3312  10.3037  10.3037  11.3305  12.1836  12.7793
    12.7793  12.8559  12.8559  13.6153  13.6153  14.7456  15.1263  15.1263
    17.2721  17.2721  17.3721  22.2027  24.2561  32.0683  32.1961  32.4529
    32.4529  36.3769  36.3769  38.1824  39.6410  40.4196  40.6802  40.6802

     occupation numbers 
     1.0000   1.0000   1.0000   1.0000   1.0000   1.0000   1.0000   1.0000
     1.0000   1.0000   1.0000   1.0000   1.0000   1.0000   1.0000   1.0000
     1.0000   1.0000   1.0000   1.0000   1.0000   1.0000   1.0000   1.1268
     0.0000   0.0000   0.0000   0.0000   0.0000   0.0000   0.0000   0.0000
     0.0000   0.0000   0.0000   0.0000   0.0000   0.0000   0.0000   0.0000

          k = 0.2669-0.0951-0.0951 (   815 PWs)   bands (ev):

   -80.9858 -77.9225 -44.4898 -44.3207 -44.3053 -41.4574 -41.4258 -41.4076
    -4.9722  -4.0465   6.8997   9.7787  10.3287  10.3602  11.0391  11.8759
    12.3731  13.0948  13.2799  13.9786  14.1461  14.7979  15.2075  15.4103
    16.7119  17.1898  18.9659  23.7015  24.1275  29.8354  30.4595  32.1986
    33.0001  33.9305  34.8147  36.8786  37.6317  40.4049  40.8924  42.2223

     occupation numbers 
     1.0000   1.0000   1.0000   1.0000   1.0000   1.0000   1.0000   1.0000
     1.0000   1.0000   1.0000   1.0000   1.0000   1.0000   1.0000   1.0000
     1.0000   1.0000   1.0000   1.0000   1.0000   1.0000   1.0254   0.9381
     0.0000   0.0000   0.0000   0.0000   0.0000   0.0000   0.0000   0.0000
     0.0000   0.0000   0.0000   0.0000   0.0000   0.0000   0.0000   0.0000

          k = 0.5338-0.1902-0.1902 (   827 PWs)   bands (ev):

   -80.9813 -77.9174 -44.4842 -44.3620 -44.3156 -41.4740 -41.4505 -41.4195
    -4.1753  -3.7301   8.0171   8.2876   8.7655   9.8139  10.3514  11.1507
    12.2852  13.5143  13.6662  14.1399  14.4829  14.5147  15.7755  15.8738
    16.8971  17.0594  21.2438  23.5492  25.8874  26.8748  27.2589  29.7918
    32.6011  33.0341  33.0538  34.8717  38.6985  40.9825  43.0087  43.0711

     occupation numbers 
     1.0000   1.0000   1.0000   1.0000   1.0000   1.0000   1.0000   1.0000
     1.0000   1.0000   1.0000   1.0000   1.0000   1.0000   1.0000   1.0000
     1.0000   1.0000   1.0000   1.0000   1.0000   1.0000   0.6385   0.0831
     0.0000   0.0000   0.0000   0.0000   0.0000   0.0000   0.0000   0.0000
     0.0000   0.0000   0.0000   0.0000   0.0000   0.0000   0.0000   0.0000

          k =-0.8008 0.2853 0.2853 (   810 PWs)   bands (ev):

   -80.9789 -77.9147 -44.4806 -44.3824 -44.3199 -41.4979 -41.4464 -41.4248
    -3.6435  -3.6236   7.5973   7.7771   8.8368   9.2839  10.2737  10.9393
    12.2080  13.6756  13.9634  14.0529  14.6777  14.7882  16.0497  16.2186
    17.0027  17.0629  23.0741  23.1172  24.3041  24.8261  28.1596  28.3106
    31.9652  32.3314  33.8449  33.9098  41.6916  41.8239  43.7245  43.9579

     occupation numbers 
     1.0000   1.0000   1.0000   1.0000   1.0000   1.0000   1.0000   1.0000
     1.0000   1.0000   1.0000   1.0000   1.0000   1.0000   1.0000   1.0000
     1.0000   1.0000   1.0000   1.0000   1.0000   1.0000  -0.1971  -0.0189
     0.0000   0.0000   0.0000   0.0000   0.0000   0.0000   0.0000   0.0000
     0.0000   0.0000   0.0000   0.0000   0.0000   0.0000   0.0000   0.0000

          k = 0.1718 0.1718-0.1902 (   811 PWs)   bands (ev):

   -80.9858 -77.9225 -44.4898 -44.3206 -44.3052 -41.4574 -41.4257 -41.4075
    -4.9485  -4.0773   6.9828   9.7666  10.4239  10.4829  10.7134  11.6090
    12.4950  13.0621  13.1692  14.2400  14.3405  14.7370  15.2001  15.5015
    16.8776  16.9764  18.9054  23.2407  24.6136  29.8316  30.1036  32.2101
    33.0636  34.6641  34.9817  36.6144  37.4465  39.1201  42.0930  42.1352

     occupation numbers 
     1.0000   1.0000   1.0000   1.0000   1.0000   1.0000   1.0000   1.0000
     1.0000   1.0000   1.0000   1.0000   1.0000   1.0000   1.0000   1.0000
     1.0000   1.0000   1.0000   1.0000   1.0000   1.0000   1.0170   0.8218
     0.0000   0.0000   0.0000   0.0000   0.0000   0.0000   0.0000   0.0000
     0.0000   0.0000   0.0000   0.0000   0.0000   0.0000   0.0000   0.0000

          k = 0.4387 0.0767-0.2853 (   821 PWs)   bands (ev):

   -80.9824 -77.9186 -44.4857 -44.3477 -44.3165 -41.4574 -41.4523 -41.4208
    -4.3581  -3.8524   7.8459   8.7950   9.3264   9.8333  10.3452  10.8470
    12.6977  13.2481  13.5842  14.0071  14.3541  14.9861  15.1050  15.8642
    16.8298  17.1728  20.7256  23.3376  26.2977  27.9567  28.4543  30.0092
    31.3198  31.4970  35.0319  37.0490  38.4975  38.8360  41.2370  44.8364

     occupation numbers 
     1.0000   1.0000   1.0000   1.0000   1.0000   1.0000   1.0000   1.0000
     1.0000   1.0000   1.0000   1.0000   1.0000   1.0000   1.0000   1.0000
     1.0000   1.0000   1.0000   1.0000   1.0000   1.0000   1.1161   0.1489
     0.0000   0.0000   0.0000   0.0000   0.0000   0.0000   0.0000   0.0000
     0.0000   0.0000   0.0000   0.0000   0.0000   0.0000   0.0000   0.0000

          k =-0.8959 0.5522 0.1902 (   832 PWs)   bands (ev):

   -80.9790 -77.9148 -44.4811 -44.3722 -44.3311 -41.4858 -41.4468 -41.4377
    -3.7178  -3.5639   7.9344   8.0614   8.8867   9.4071   9.8886  10.0899
    12.8043  13.5101  13.8000  14.2021  14.3290  14.8739  15.7087  16.1738
    16.9424  17.2804  22.9318  23.4000  25.5208  25.9905  27.4819  27.7879
    30.3255  31.1341  34.9349  36.1405  39.8543  40.5400  42.8014  43.7401

     occupation numbers 
     1.0000   1.0000   1.0000   1.0000   1.0000   1.0000   1.0000   1.0000
     1.0000   1.0000   1.0000   1.0000   1.0000   1.0000   1.0000   1.0000
     1.0000   1.0000   1.0000   1.0000   1.0000   1.0000   0.7158  -0.0190
     0.0000   0.0000   0.0000   0.0000   0.0000   0.0000   0.0000   0.0000
     0.0000   0.0000   0.0000   0.0000   0.0000   0.0000   0.0000   0.0000

          k =-0.6289 0.4571 0.0951 (   831 PWs)   bands (ev):

   -80.9790 -77.9147 -44.4811 -44.3724 -44.3310 -41.4860 -41.4468 -41.4376
    -3.7113  -3.5722   7.7810   8.4492   8.8587   9.2045   9.8900  10.0439
    12.8574  13.5104  13.8144  14.1329  14.4124  14.7740  15.6633  16.1701
    16.8071  17.6086  22.3698  23.8577  25.5407  26.1450  27.4642  27.9375
    30.3497  30.6778  35.2725  35.9445  39.9650  40.2935  42.0213  43.8854

     occupation numbers 
     1.0000   1.0000   1.0000   1.0000   1.0000   1.0000   1.0000   1.0000
     1.0000   1.0000   1.0000   1.0000   1.0000   1.0000   1.0000   1.0000
     1.0000   1.0000   1.0000   1.0000   1.0000   1.0000   0.8415  -0.0221
     0.0000   0.0000   0.0000   0.0000   0.0000   0.0000   0.0000   0.0000
     0.0000   0.0000   0.0000   0.0000   0.0000   0.0000   0.0000   0.0000

          k =-0.3620 0.3620-0.0000 (   815 PWs)   bands (ev):

   -80.9824 -77.9186 -44.4854 -44.3479 -44.3163 -41.4575 -41.4520 -41.4206
    -4.3950  -3.8108   7.8137   8.9918   9.2131   9.7268  10.3173  10.8841
    12.7076  13.3421  13.5727  13.9607  14.3947  14.8953  15.1639  15.8293
    16.8175  17.3144  20.4744  23.6516  26.0247  27.9238  28.5012  30.1665
    31.3715  31.9267  34.2677  37.7778  38.1072  38.3477  40.8690  44.7231

     occupation numbers 
     1.0000   1.0000   1.0000   1.0000   1.0000   1.0000   1.0000   1.0000
     1.0000   1.0000   1.0000   1.0000   1.0000   1.0000   1.0000   1.0000
     1.0000   1.0000   1.0000   1.0000   1.0000   1.0000   1.1000   0.1871
     0.0000   0.0000   0.0000   0.0000   0.0000   0.0000   0.0000   0.0000
     0.0000   0.0000   0.0000   0.0000   0.0000   0.0000   0.0000   0.0000

          k = 0.3436 0.3436-0.3804 (   827 PWs)   bands (ev):

   -80.9813 -77.9174 -44.4841 -44.3622 -44.3155 -41.4741 -41.4503 -41.4194
    -4.0802  -3.8346   8.0176   8.1854   9.1262   9.5471  10.3050  11.2364
    12.3186  13.4398  13.5384  14.3373  14.3734  14.5851  15.6649  15.8748
    17.1677  17.3728  20.4508  22.7944  26.8488  27.3557  27.3639  29.7085
    31.8178  32.9721  33.7975  36.0134  37.2240  41.3239  42.0681  42.7379

     occupation numbers 
     1.0000   1.0000   1.0000   1.0000   1.0000   1.0000   1.0000   1.0000
     1.0000   1.0000   1.0000   1.0000   1.0000   1.0000   1.0000   1.0000
     1.0000   1.0000   1.0000   1.0000   1.0000   1.0000   0.8903   0.0806
     0.0000   0.0000   0.0000   0.0000   0.0000   0.0000   0.0000   0.0000
     0.0000   0.0000   0.0000   0.0000   0.0000   0.0000   0.0000   0.0000

          k =-0.9910 0.8192 0.0951 (   834 PWs)   bands (ev):

   -80.9790 -77.9147 -44.4810 -44.3725 -44.3311 -41.4860 -41.4466 -41.4376
    -3.6470  -3.6352   7.4843   8.3399   9.0395   9.5551   9.9092  10.1033
    12.7314  13.3792  13.7333  14.2409  14.3256  14.9501  15.6344  16.1803
    16.9725  17.6715  21.6597  23.0954  26.0628  26.7757  27.5984  28.3542
    29.6283  31.1926  34.7930  37.4487  38.8137  41.4189  41.5913  42.5748

     occupation numbers 
     1.0000   1.0000   1.0000   1.0000   1.0000   1.0000   1.0000   1.0000
     1.0000   1.0000   1.0000   1.0000   1.0000   1.0000   1.0000   1.0000
     1.0000   1.0000   1.0000   1.0000   1.0000   1.0000   0.9059  -0.0178
     0.0000   0.0000   0.0000   0.0000   0.0000   0.0000   0.0000   0.0000
     0.0000   0.0000   0.0000   0.0000   0.0000   0.0000   0.0000   0.0000

          k =-0.7241 0.7241 0.0000 (   831 PWs)   bands (ev):

   -80.9778 -77.9134 -44.4793 -44.3582 -44.3579 -41.4693 -41.4691 -41.4447
    -3.4793  -3.4793   8.2967   8.3452   8.8779   9.0014   9.2130   9.3935
    13.3504  13.4373  13.4790  14.2319  14.4717  15.4393  15.5665  15.8756
    17.1902  17.3014  23.8725  24.3334  25.1974  25.9850  26.0818  26.4575
    30.3804  30.8281  35.9731  37.1661  39.3442  40.2026  41.4275  41.8100

     occupation numbers 
     1.0000   1.0000   1.0000   1.0000   1.0000   1.0000   1.0000   1.0000
     1.0000   1.0000   1.0000   1.0000   1.0000   1.0000   1.0000   1.0000
     1.0000   1.0000   1.0000   1.0000   1.0000   1.0000   1.0133   0.0000
     0.0000   0.0000   0.0000   0.0000   0.0000   0.0000   0.0000   0.0000
     0.0000   0.0000   0.0000   0.0000   0.0000   0.0000   0.0000   0.0000

          k =-0.5155-0.5155 0.5706 (   824 PWs)   bands (ev):

   -80.9790 -77.9147 -44.4808 -44.3829 -44.3205 -41.4982 -41.4465 -41.4252
    -3.6981  -3.5633   6.8659   8.1341   8.8069   9.9517  10.3341  11.5962
    11.7024  13.6653  13.6733  14.0075  14.1905  14.6434  16.0649  16.1823
    17.5283  17.9038  20.2991  22.4936  25.5659  26.7804  28.3833  28.4976
    30.4866  32.1831  33.8449  37.2300  38.0048  39.7507  42.9608  43.7197

     occupation numbers 
     1.0000   1.0000   1.0000   1.0000   1.0000   1.0000   1.0000   1.0000
     1.0000   1.0000   1.0000   1.0000   1.0000   1.0000   1.0000   1.0000
     1.0000   1.0000   1.0000   1.0000   1.0000   1.0000  -0.1896  -0.0129
     0.0000   0.0000   0.0000   0.0000   0.0000   0.0000   0.0000   0.0000
     0.0000   0.0000   0.0000   0.0000   0.0000   0.0000   0.0000   0.0000

          k = 0.0767 0.0767 0.0767 (   808 PWs)   bands (ev):

   -80.9881 -77.9252 -44.4929 -44.3002 -44.3002 -41.4612 -41.4017 -41.4017
    -5.2605  -4.2746   6.5699  10.3720  10.3720  10.6041  12.3773  12.3773
    12.5290  12.8844  12.8844  14.0170  14.0170  14.7785  15.1165  15.1165
    17.1755  17.1755  17.7327  21.8628  24.5981  30.1737  32.6875  32.6875
    34.1358  36.1657  36.1657  38.4250  39.0823  39.8314  39.8314  41.2236

     occupation numbers 
     1.0000   1.0000   1.0000   1.0000   1.0000   1.0000   1.0000   1.0000
     1.0000   1.0000   1.0000   1.0000   1.0000   1.0000   1.0000   1.0000
     1.0000   1.0000   1.0000   1.0000   1.0000   1.0000   1.0009   1.1419
     0.0000   0.0000   0.0000   0.0000   0.0000   0.0000   0.0000   0.0000
     0.0000   0.0000   0.0000   0.0000   0.0000   0.0000   0.0000   0.0000

          k = 0.3436-0.0184-0.0184 (   827 PWs)   bands (ev):

   -80.9858 -77.9226 -44.4902 -44.3209 -44.3054 -41.4577 -41.4259 -41.4077
    -4.8849  -4.1555   7.1680   9.4843  10.1442  10.3456  11.1005  11.9283
    12.4426  13.2541  13.4033  13.7638  13.9518  14.8623  15.2716  15.3579
    16.4151  17.3032  19.5921  22.7357  25.0797  29.6127  29.9203  32.4426
    33.0198  33.2411  34.5828  38.2215  38.8043  38.9807  41.7533  42.6025

     occupation numbers 
     1.0000   1.0000   1.0000   1.0000   1.0000   1.0000   1.0000   1.0000
     1.0000   1.0000   1.0000   1.0000   1.0000   1.0000   1.0000   1.0000
     1.0000   1.0000   1.0000   1.0000   1.0000   1.0000   1.0312   0.9775
     0.0000   0.0000   0.0000   0.0000   0.0000   0.0000   0.0000   0.0000
     0.0000   0.0000   0.0000   0.0000   0.0000   0.0000   0.0000   0.0000

          k =-0.9910 0.4571 0.4571 (   819 PWs)   bands (ev):

   -80.9812 -77.9173 -44.4840 -44.3617 -44.3154 -41.4739 -41.4503 -41.4193
    -4.1391  -3.7669   7.7777   8.2160   8.9071  10.2198  10.2592  11.4167
    12.0777  13.5285  13.7438  13.9515  14.2206  14.5634  15.8297  15.8925
    16.6087  17.2909  21.8277  22.8553  26.4023  26.8538  27.2974  29.4297
    32.0593  32.2952  33.3218  36.2237  40.4499  40.8282  41.3710  43.7368

     occupation numbers 
     1.0000   1.0000   1.0000   1.0000   1.0000   1.0000   1.0000   1.0000
     1.0000   1.0000   1.0000   1.0000   1.0000   1.0000   1.0000   1.0000
     1.0000   1.0000   1.0000   1.0000   1.0000   1.0000   0.4553   0.0730
     0.0000   0.0000   0.0000   0.0000   0.0000   0.0000   0.0000   0.0000
     0.0000   0.0000   0.0000   0.0000   0.0000   0.0000   0.0000   0.0000

          k =-0.7241 0.3620 0.3620 (   826 PWs)   bands (ev):

   -80.9790 -77.9147 -44.4810 -44.3829 -44.3202 -41.4982 -41.4466 -41.4251
    -3.6676  -3.5981   7.2841   7.9748   8.8308   9.5178  10.1580  11.1235
    12.1156  13.6732  13.8594  14.1285  14.5776  14.6522  16.0551  16.2137
    17.1505  17.2332  21.8602  23.3800  24.4330  25.6396  28.1951  28.3502
    31.2980  32.9657  33.0045  35.1211  39.4608  43.0343  43.6433  43.6817

     occupation numbers 
     1.0000   1.0000   1.0000   1.0000   1.0000   1.0000   1.0000   1.0000
     1.0000   1.0000   1.0000   1.0000   1.0000   1.0000   1.0000   1.0000
     1.0000   1.0000   1.0000   1.0000   1.0000   1.0000  -0.1795  -0.0181
     0.0000   0.0000   0.0000   0.0000   0.0000   0.0000   0.0000   0.0000
     0.0000   0.0000   0.0000   0.0000   0.0000   0.0000   0.0000   0.0000

          k =-0.4571 0.2669 0.2669 (   824 PWs)   bands (ev):

   -80.9813 -77.9174 -44.4840 -44.3621 -44.3155 -41.4741 -41.4503 -41.4195
    -4.1542  -3.7555   8.1973   8.2500   8.8548   9.4717  10.4198  11.0432
    12.3802  13.5196  13.5313  14.3057  14.5068  14.5900  15.6799  15.9099
    16.9834  17.2746  20.6324  23.3303  26.3897  26.8819  27.3044  30.0514
    32.1846  33.4688  33.8271  34.4773  37.1852  42.0100  42.1967  43.1561

     occupation numbers 
     1.0000   1.0000   1.0000   1.0000   1.0000   1.0000   1.0000   1.0000
     1.0000   1.0000   1.0000   1.0000   1.0000   1.0000   1.0000   1.0000
     1.0000   1.0000   1.0000   1.0000   1.0000   1.0000   0.8496   0.0625
     0.0000   0.0000   0.0000   0.0000   0.0000   0.0000   0.0000   0.0000
     0.0000   0.0000   0.0000   0.0000   0.0000   0.0000   0.0000   0.0000

          k = 0.2485 0.2485-0.1135 (   815 PWs)   bands (ev):

   -80.9858 -77.9225 -44.4902 -44.3205 -44.3050 -41.4578 -41.4256 -41.4074
    -4.8183  -4.2361   7.3937   9.3597  10.1217  10.6355  10.7585  11.3643
    12.6540  13.1446  13.1683  14.1107  14.5203  14.7529  15.2136  15.5399
    16.7742  16.8760  19.5255  22.3555  25.5880  28.8323  30.4313  31.3818
    33.3585  35.0010  35.6188  36.2195  37.8071  39.0394  42.1306  43.2709

     occupation numbers 
     1.0000   1.0000   1.0000   1.0000   1.0000   1.0000   1.0000   1.0000
     1.0000   1.0000   1.0000   1.0000   1.0000   1.0000   1.0000   1.0000
     1.0000   1.0000   1.0000   1.0000   1.0000   1.0000   1.0224   0.7451
     0.0000   0.0000   0.0000   0.0000   0.0000   0.0000   0.0000   0.0000
     0.0000   0.0000   0.0000   0.0000   0.0000   0.0000   0.0000   0.0000

          k =-1.0861 0.7241 0.3620 (   819 PWs)   bands (ev):

   -80.9824 -77.9186 -44.4855 -44.3476 -44.3166 -41.4573 -41.4522 -41.4208
    -4.2557  -3.9640   7.9540   8.4798   9.5468   9.9452  10.4116  10.7556
    12.7199  13.0739  13.6273  13.9911  14.3463  15.0171  15.1255  15.9320
    16.7956  16.9982  21.2963  22.6900  26.9211  28.0651  28.2725  29.1926
    31.1802  31.6609  35.7367  36.2980  39.3871  39.8785  42.1146  43.3251

     occupation numbers 
     1.0000   1.0000   1.0000   1.0000   1.0000   1.0000   1.0000   1.0000
     1.0000   1.0000   1.0000   1.0000   1.0000   1.0000   1.0000   1.0000
     1.0000   1.0000   1.0000   1.0000   1.0000   1.0000   1.1387   0.0945
     0.0000   0.0000   0.0000   0.0000   0.0000   0.0000   0.0000   0.0000
     0.0000   0.0000   0.0000   0.0000   0.0000   0.0000   0.0000   0.0000

          k =-0.8192 0.6289 0.2669 (   827 PWs)   bands (ev):

   -80.9790 -77.9147 -44.4809 -44.3721 -44.3309 -41.4857 -41.4466 -41.4375
    -3.7038  -3.5764   7.7031   8.0599   8.9713   9.5934   9.9322  10.1473
    12.7080  13.4449  13.7395  14.2692  14.3352  14.9473  15.7578  16.1746
    17.0670  17.1575  22.5661  23.0752  25.6470  26.3708  27.5578  27.8571
    30.2270  31.3928  34.7203  36.4874  39.8738  41.4894  42.5811  42.9539

     occupation numbers 
     1.0000   1.0000   1.0000   1.0000   1.0000   1.0000   1.0000   1.0000
     1.0000   1.0000   1.0000   1.0000   1.0000   1.0000   1.0000   1.0000
     1.0000   1.0000   1.0000   1.0000   1.0000   1.0000   0.5052  -0.0175
     0.0000   0.0000   0.0000   0.0000   0.0000   0.0000   0.0000   0.0000
     0.0000   0.0000   0.0000   0.0000   0.0000   0.0000   0.0000   0.0000

          k =-0.5522 0.5338 0.1718 (   827 PWs)   bands (ev):

   -80.9790 -77.9147 -44.4808 -44.3724 -44.3309 -41.4860 -41.4465 -41.4375
    -3.6854  -3.5983   7.6039   8.4821   9.0433   9.2529   9.8759  10.0475
    12.8477  13.4365  13.7620  14.1964  14.3460  14.8411  15.6329  16.1872
    16.8267  17.7998  21.8172  23.5346  25.8714  26.5598  27.5162  28.2447
    30.0059  30.6427  35.4439  36.1699  39.4684  41.0398  41.3738  43.8512

     occupation numbers 
     1.0000   1.0000   1.0000   1.0000   1.0000   1.0000   1.0000   1.0000
     1.0000   1.0000   1.0000   1.0000   1.0000   1.0000   1.0000   1.0000
     1.0000   1.0000   1.0000   1.0000   1.0000   1.0000   0.8893  -0.0216
     0.0000   0.0000   0.0000   0.0000   0.0000   0.0000   0.0000   0.0000
     0.0000   0.0000   0.0000   0.0000   0.0000   0.0000   0.0000   0.0000

          k =-0.6106-0.6106 0.8375 (   817 PWs)   bands (ev):

   -80.9812 -77.9173 -44.4838 -44.3618 -44.3152 -41.4739 -41.4501 -41.4192
    -3.9711  -3.9442   7.7943   8.1349   9.1436  10.0647  10.1894  11.4925
    12.1275  13.4330  13.5730  14.0637  14.2748  14.6310  15.7257  15.8361
    17.0790  17.3852  20.9369  22.4141  26.8328  27.3779  28.2596  28.7188
    31.6947  32.2241  33.8849  37.3177  39.0824  40.0671  40.7143  42.5799

     occupation numbers 
     1.0000   1.0000   1.0000   1.0000   1.0000   1.0000   1.0000   1.0000
     1.0000   1.0000   1.0000   1.0000   1.0000   1.0000   1.0000   1.0000
     1.0000   1.0000   1.0000   1.0000   1.0000   1.0000   0.7327   0.1132
     0.0000   0.0000   0.0000   0.0000   0.0000   0.0000   0.0000   0.0000
     0.0000   0.0000   0.0000   0.0000   0.0000   0.0000   0.0000   0.0000

          k =-0.3436-0.7057 0.7424 (   829 PWs)   bands (ev):

   -80.9790 -77.9147 -44.4809 -44.3723 -44.3310 -41.4859 -41.4465 -41.4375
    -3.6737  -3.6068   7.5079   8.1915   9.0231   9.6300   9.9715  10.1753
    12.6433  13.3869  13.7268  14.2419  14.3805  14.9786  15.7064  16.1666
    17.0755  17.3673  21.9449  22.9597  25.9470  26.6974  27.6195  28.0855
    29.8863  31.5108  34.5094  37.2658  39.5487  41.6395  41.9968  42.1600

     occupation numbers 
     1.0000   1.0000   1.0000   1.0000   1.0000   1.0000   1.0000   1.0000
     1.0000   1.0000   1.0000   1.0000   1.0000   1.0000   1.0000   1.0000
     1.0000   1.0000   1.0000   1.0000   1.0000   1.0000   0.7356  -0.0164
     0.0000   0.0000   0.0000   0.0000   0.0000   0.0000   0.0000   0.0000
     0.0000   0.0000   0.0000   0.0000   0.0000   0.0000   0.0000   0.0000

          k =-0.0767-0.8008 0.6473 (   846 PWs)   bands (ev):

   -80.9779 -77.9135 -44.4796 -44.3585 -44.3585 -41.4695 -41.4695 -41.4449
    -3.4794  -3.4794   8.3012   8.3331   8.9023   8.9629   9.2228   9.3867
    13.3496  13.4349  13.4789  14.2326  14.4655  15.4550  15.5436  15.8797
    17.1970  17.2897  24.0569  24.0707  25.3862  25.7424  26.2395  26.4145
    30.4548  30.7265  36.4903  36.5025  39.8015  39.9469  41.5430  41.6336

     occupation numbers 
     1.0000   1.0000   1.0000   1.0000   1.0000   1.0000   1.0000   1.0000
     1.0000   1.0000   1.0000   1.0000   1.0000   1.0000   1.0000   1.0000
     1.0000   1.0000   1.0000   1.0000   1.0000   1.0000   1.0366   0.0000
     0.0000   0.0000   0.0000   0.0000   0.0000   0.0000   0.0000   0.0000
     0.0000   0.0000   0.0000   0.0000   0.0000   0.0000   0.0000   0.0000

          k =-0.4387-0.4387 0.6473 (   831 PWs)   bands (ev):

   -80.9790 -77.9148 -44.4812 -44.3830 -44.3204 -41.4984 -41.4468 -41.4252
    -3.6900  -3.5729   6.9791   8.0951   8.8156  10.0094  10.0243  11.4383
    11.8775  13.6695  13.7294  14.1810  14.1950  14.6354  16.0625  16.1940
    17.4128  17.6388  20.7866  22.7363  25.2515  26.4639  28.3055  28.4440
    30.7052  32.3839  33.6154  36.6858  37.8562  41.2009  43.2259  43.6996

     occupation numbers 
     1.0000   1.0000   1.0000   1.0000   1.0000   1.0000   1.0000   1.0000
     1.0000   1.0000   1.0000   1.0000   1.0000   1.0000   1.0000   1.0000
     1.0000   1.0000   1.0000   1.0000   1.0000   1.0000  -0.2027  -0.0158
     0.0000   0.0000   0.0000   0.0000   0.0000   0.0000   0.0000   0.0000
     0.0000   0.0000   0.0000   0.0000   0.0000   0.0000   0.0000   0.0000

          k = 0.1534 0.1534 0.1534 (   817 PWs)   bands (ev):

   -80.9881 -77.9251 -44.4931 -44.3001 -44.3001 -41.4614 -41.4016 -41.4016
    -5.0737  -4.5077   7.2315   9.4146  10.5457  10.5457  11.8588  11.8588
    12.7920  12.8975  12.8975  14.5820  14.5820  14.8057  15.0887  15.0887
    16.9457  16.9457  18.6680  21.0055  25.4685  28.3575  33.3541  33.3541
    35.4252  35.4252  36.0039  38.3293  39.2390  39.3229  39.3229  40.4553

     occupation numbers 
     1.0000   1.0000   1.0000   1.0000   1.0000   1.0000   1.0000   1.0000
     1.0000   1.0000   1.0000   1.0000   1.0000   1.0000   1.0000   1.0000
     1.0000   1.0000   1.0000   1.0000   1.0000   1.0000   1.0032   1.1629
     0.0000   0.0000   0.0000   0.0000   0.0000   0.0000   0.0000   0.0000
     0.0000   0.0000   0.0000   0.0000   0.0000   0.0000   0.0000   0.0000

          k =-1.1812 0.6289 0.6289 (   829 PWs)   bands (ev):

   -80.9858 -77.9226 -44.4902 -44.3210 -44.3054 -41.4579 -41.4260 -41.4077
    -4.7039  -4.3649   7.7391   8.7908  10.3272  10.4425  10.7500  11.7184
    12.5973  13.2705  13.4010  13.8796  14.0703  14.8607  15.3109  15.3645
    16.3052  17.2305  20.4700  21.6570  26.2034  28.1467  30.2058  31.9511
    33.4013  33.7484  34.3015  37.9353  39.6509  40.3683  40.7933  42.1283

     occupation numbers 
     1.0000   1.0000   1.0000   1.0000   1.0000   1.0000   1.0000   1.0000
     1.0000   1.0000   1.0000   1.0000   1.0000   1.0000   1.0000   1.0000
     1.0000   1.0000   1.0000   1.0000   1.0000   1.0000   1.0405   0.9511
     0.0000   0.0000   0.0000   0.0000   0.0000   0.0000   0.0000   0.0000
     0.0000   0.0000   0.0000   0.0000   0.0000   0.0000   0.0000   0.0000

          k =-0.9143 0.5338 0.5338 (   815 PWs)   bands (ev):

   -80.9812 -77.9173 -44.4838 -44.3616 -44.3153 -41.4737 -41.4501 -41.4193
    -4.0552  -3.8558   7.6953   8.1491   9.0594  10.1554  10.4182  11.5798
    11.9654  13.5468  13.5723  13.9754  14.1080  14.6301  15.8196  15.8441
    16.7086  17.4371  21.8286  22.1790  26.7962  27.2831  27.5948  28.9818
    31.7894  31.8706  33.7083  37.8383  39.3495  40.3906  41.4465  42.3889

     occupation numbers 
     1.0000   1.0000   1.0000   1.0000   1.0000   1.0000   1.0000   1.0000
     1.0000   1.0000   1.0000   1.0000   1.0000   1.0000   1.0000   1.0000
     1.0000   1.0000   1.0000   1.0000   1.0000   1.0000   0.4359   0.1112
     0.0000   0.0000   0.0000   0.0000   0.0000   0.0000   0.0000   0.0000
     0.0000   0.0000   0.0000   0.0000   0.0000   0.0000   0.0000   0.0000

          k =-0.7057-0.7057 1.1045 (   821 PWs)   bands (ev):

   -80.9858 -77.9225 -44.4900 -44.3208 -44.3051 -41.4576 -41.4258 -41.4075
    -4.6079  -4.4678   8.0413   8.5231  10.3523  10.5870  10.6016  11.4252
    12.6846  13.1784  13.3566  13.9484  14.4087  14.8070  15.2519  15.4452
    16.5122  17.0272  20.5287  21.4334  26.7562  27.5100  30.6652  31.0964
    33.7525  34.5094  34.5951  37.4237  38.0964  40.6542  41.9286  42.2921

     occupation numbers 
     1.0000   1.0000   1.0000   1.0000   1.0000   1.0000   1.0000   1.0000
     1.0000   1.0000   1.0000   1.0000   1.0000   1.0000   1.0000   1.0000
     1.0000   1.0000   1.0000   1.0000   1.0000   1.0000   1.0548   0.8593
     0.0000   0.0000   0.0000   0.0000   0.0000   0.0000   0.0000   0.0000
     0.0000   0.0000   0.0000   0.0000   0.0000   0.0000   0.0000   0.0000

          k =-0.4387-0.8008 1.0094 (   814 PWs)   bands (ev):

   -80.9824 -77.9186 -44.4853 -44.3474 -44.3165 -41.4571 -41.4520 -41.4208
    -4.1122  -4.1120   8.0778   8.2792   9.6966   9.9479  10.4499  10.6891
    12.8058  12.9301  13.6746  13.9252  14.3717  14.9864  15.1763  15.9613
    16.7627  16.9506  21.9046  22.0581  27.6039  27.7994  28.2559  28.5790
    31.3984  31.6273  35.9048  35.9507  40.6315  40.7652  41.8928  41.9732

     occupation numbers 
     1.0000   1.0000   1.0000   1.0000   1.0000   1.0000   1.0000   1.0000
     1.0000   1.0000   1.0000   1.0000   1.0000   1.0000   1.0000   1.0000
     1.0000   1.0000   1.0000   1.0000   1.0000   1.0000   1.1541   0.0824
     0.0000   0.0000   0.0000   0.0000   0.0000   0.0000   0.0000   0.0000
     0.0000   0.0000   0.0000   0.0000   0.0000   0.0000   0.0000   0.0000

          k =-0.2301-0.2301-0.2301 (   828 PWs)   bands (ev):

   -80.9881 -77.9252 -44.4934 -44.3002 -44.3002 -41.4616 -41.4017 -41.4017
    -4.8087  -4.7956   8.1288   8.3217  10.6758  10.6758  11.5985  11.5985
    12.8643  12.9019  12.9019  14.8065  14.8628  14.8628  15.0548  15.0548
    16.8064  16.8064  19.7444  19.9713  26.6278  26.8815  34.2703  34.2703
    34.4229  34.4229  37.3868  37.4173  39.5155  39.5155  39.7380  39.7380

     occupation numbers 
     1.0000   1.0000   1.0000   1.0000   1.0000   1.0000   1.0000   1.0000
     1.0000   1.0000   1.0000   1.0000   1.0000   1.0000   1.0000   1.0000
     1.0000   1.0000   1.0000   1.0000   1.0000   1.0000   1.0067   1.1589
     0.0000   0.0000   0.0000   0.0000   0.0000   0.0000   0.0000   0.0000
     0.0000   0.0000   0.0000   0.0000   0.0000   0.0000   0.0000   0.0000

 ------ SPIN DOWN ----------


          k = 0.0000 0.0000 0.0000 (   811 PWs)   bands (ev):

   -80.9900 -77.9234 -44.4951 -44.3021 -44.3021 -41.4597 -41.4000 -41.4000
    -5.3266  -4.1850   6.3312  10.3032  10.3032  11.3305  12.1825  12.7793
    12.7793  12.8544  12.8544  13.6149  13.6149  14.7465  15.1277  15.1277
    17.2729  17.2729  17.3722  22.2027  24.2561  32.0683  32.1961  32.4529
    32.4529  36.3769  36.3769  38.1824  39.6410  40.4196  40.6801  40.6801

     occupation numbers 
     1.0000   1.0000   1.0000   1.0000   1.0000   1.0000   1.0000   1.0000
     1.0000   1.0000   1.0000   1.0000   1.0000   1.0000   1.0000   1.0000
     1.0000   1.0000   1.0000   1.0000   1.0000   1.0000   1.0000   1.1275
     0.0000   0.0000   0.0000   0.0000   0.0000   0.0000   0.0000   0.0000
     0.0000   0.0000   0.0000   0.0000   0.0000   0.0000   0.0000   0.0000

          k = 0.2669-0.0951-0.0951 (   815 PWs)   bands (ev):

   -80.9877 -77.9207 -44.4916 -44.3226 -44.3071 -41.4557 -41.4240 -41.4058
    -4.9722  -4.0465   6.8997   9.7782  10.3288  10.3597  11.0391  11.8756
    12.3719  13.0936  13.2788  13.9780  14.1455  14.7988  15.2085  15.4116
    16.7131  17.1907  18.9659  23.7015  24.1275  29.8352  30.4595  32.1986
    33.0000  33.9304  34.8147  36.8785  37.6317  40.4049  40.8924  42.2223

     occupation numbers 
     1.0000   1.0000   1.0000   1.0000   1.0000   1.0000   1.0000   1.0000
     1.0000   1.0000   1.0000   1.0000   1.0000   1.0000   1.0000   1.0000
     1.0000   1.0000   1.0000   1.0000   1.0000   1.0000   1.0257   0.9355
     0.0000   0.0000   0.0000   0.0000   0.0000   0.0000   0.0000   0.0000
     0.0000   0.0000   0.0000   0.0000   0.0000   0.0000   0.0000   0.0000

          k = 0.5338-0.1902-0.1902 (   827 PWs)   bands (ev):

   -80.9832 -77.9155 -44.4860 -44.3638 -44.3174 -41.4723 -41.4488 -41.4177
    -4.1753  -3.7301   8.0170   8.2875   8.7654   9.8139  10.3508  11.1507
    12.2839  13.5127  13.6649  14.1400  14.4829  14.5140  15.7768  15.8751
    16.8982  17.0606  21.2438  23.5493  25.8873  26.8742  27.2595  29.7918
    32.6004  33.0341  33.0544  34.8717  38.6985  40.9825  43.0087  43.0710

     occupation numbers 
     1.0000   1.0000   1.0000   1.0000   1.0000   1.0000   1.0000   1.0000
     1.0000   1.0000   1.0000   1.0000   1.0000   1.0000   1.0000   1.0000
     1.0000   1.0000   1.0000   1.0000   1.0000   1.0000   0.6315   0.0819
     0.0000   0.0000   0.0000   0.0000   0.0000   0.0000   0.0000   0.0000
     0.0000   0.0000   0.0000   0.0000   0.0000   0.0000   0.0000   0.0000

          k =-0.8008 0.2853 0.2853 (   810 PWs)   bands (ev):

   -80.9808 -77.9129 -44.4824 -44.3842 -44.3218 -41.4962 -41.4447 -41.4231
    -3.6435  -3.6236   7.5970   7.7773   8.8365   9.2840  10.2731  10.9395
    12.2066  13.6739  13.9619  14.0541  14.6766  14.7872  16.0513  16.2200
    17.0040  17.0641  23.0745  23.1168  24.3035  24.8266  28.1594  28.3108
    31.9645  32.3320  33.8449  33.9098  41.6914  41.8241  43.7242  43.9575

     occupation numbers 
     1.0000   1.0000   1.0000   1.0000   1.0000   1.0000   1.0000   1.0000
     1.0000   1.0000   1.0000   1.0000   1.0000   1.0000   1.0000   1.0000
     1.0000   1.0000   1.0000   1.0000   1.0000   1.0000  -0.2001  -0.0188
     0.0000   0.0000   0.0000   0.0000   0.0000   0.0000   0.0000   0.0000
     0.0000   0.0000   0.0000   0.0000   0.0000   0.0000   0.0000   0.0000

          k = 0.1718 0.1718-0.1902 (   811 PWs)   bands (ev):

   -80.9877 -77.9207 -44.4916 -44.3225 -44.3070 -41.4557 -41.4240 -41.4058
    -4.9485  -4.0773   6.9827   9.7661  10.4241  10.4824  10.7132  11.6089
    12.4937  13.0609  13.1680  14.2393  14.3401  14.7381  15.2011  15.5026
    16.8788  16.9775  18.9054  23.2407  24.6136  29.8313  30.1039  32.2101
    33.0634  34.6641  34.9817  36.6144  37.4466  39.1201  42.0931  42.1352

     occupation numbers 
     1.0000   1.0000   1.0000   1.0000   1.0000   1.0000   1.0000   1.0000
     1.0000   1.0000   1.0000   1.0000   1.0000   1.0000   1.0000   1.0000
     1.0000   1.0000   1.0000   1.0000   1.0000   1.0000   1.0172   0.8191
     0.0000   0.0000   0.0000   0.0000   0.0000   0.0000   0.0000   0.0000
     0.0000   0.0000   0.0000   0.0000   0.0000   0.0000   0.0000   0.0000

          k = 0.4387 0.0767-0.2853 (   821 PWs)   bands (ev):

   -80.9843 -77.9168 -44.4875 -44.3496 -44.3184 -41.4556 -41.4506 -41.4190
    -4.3581  -3.8524   7.8458   8.7949   9.3261   9.8333  10.3449  10.8468
    12.6963  13.2470  13.5827  14.0063  14.3535  14.9872  15.1060  15.8656
    16.8309  17.1740  20.7256  23.3377  26.2976  27.9566  28.4543  30.0093
    31.3198  31.4971  35.0318  37.0490  38.4975  38.8360  41.2370  44.8363

     occupation numbers 
     1.0000   1.0000   1.0000   1.0000   1.0000   1.0000   1.0000   1.0000
     1.0000   1.0000   1.0000   1.0000   1.0000   1.0000   1.0000   1.0000
     1.0000   1.0000   1.0000   1.0000   1.0000   1.0000   1.1174   0.1471
     0.0000   0.0000   0.0000   0.0000   0.0000   0.0000   0.0000   0.0000
     0.0000   0.0000   0.0000   0.0000   0.0000   0.0000   0.0000   0.0000

          k =-0.8959 0.5522 0.1902 (   832 PWs)   bands (ev):

   -80.9809 -77.9129 -44.4829 -44.3740 -44.3330 -41.4841 -41.4450 -41.4359
    -3.7178  -3.5639   7.9343   8.0613   8.8866   9.4069   9.8885  10.0897
    12.8030  13.5086  13.7985  14.2011  14.3287  14.8744  15.7100  16.1753
    16.9436  17.2816  22.9316  23.4002  25.5203  25.9910  27.4815  27.7883
    30.3255  31.1341  34.9349  36.1405  39.8543  40.5400  42.8014  43.7401

     occupation numbers 
     1.0000   1.0000   1.0000   1.0000   1.0000   1.0000   1.0000   1.0000
     1.0000   1.0000   1.0000   1.0000   1.0000   1.0000   1.0000   1.0000
     1.0000   1.0000   1.0000   1.0000   1.0000   1.0000   0.7087  -0.0190
     0.0000   0.0000   0.0000   0.0000   0.0000   0.0000   0.0000   0.0000
     0.0000   0.0000   0.0000   0.0000   0.0000   0.0000   0.0000   0.0000

          k =-0.6289 0.4571 0.0951 (   831 PWs)   bands (ev):

   -80.9809 -77.9129 -44.4829 -44.3742 -44.3329 -41.4842 -41.4450 -41.4358
    -3.7113  -3.5722   7.7809   8.4491   8.8585   9.2043   9.8898  10.0438
    12.8561  13.5090  13.8129  14.1320  14.4116  14.7750  15.6646  16.1715
    16.8084  17.6096  22.3698  23.8578  25.5403  26.1453  27.4640  27.9377
    30.3497  30.6778  35.2725  35.9445  39.9650  40.2935  42.0213  43.8853

     occupation numbers 
     1.0000   1.0000   1.0000   1.0000   1.0000   1.0000   1.0000   1.0000
     1.0000   1.0000   1.0000   1.0000   1.0000   1.0000   1.0000   1.0000
     1.0000   1.0000   1.0000   1.0000   1.0000   1.0000   0.8372  -0.0221
     0.0000   0.0000   0.0000   0.0000   0.0000   0.0000   0.0000   0.0000
     0.0000   0.0000   0.0000   0.0000   0.0000   0.0000   0.0000   0.0000

          k =-0.3620 0.3620-0.0000 (   815 PWs)   bands (ev):

   -80.9843 -77.9168 -44.4872 -44.3497 -44.3181 -41.4557 -41.4503 -41.4188
    -4.3950  -3.8108   7.8137   8.9917   9.2127   9.7268  10.3171  10.8838
    12.7062  13.3410  13.5713  13.9598  14.3942  14.8966  15.1647  15.8307
    16.8186  17.3155  20.4744  23.6516  26.0247  27.9237  28.5011  30.1666
    31.3715  31.9267  34.2677  37.7778  38.1071  38.3478  40.8689  44.7230

     occupation numbers 
     1.0000   1.0000   1.0000   1.0000   1.0000   1.0000   1.0000   1.0000
     1.0000   1.0000   1.0000   1.0000   1.0000   1.0000   1.0000   1.0000
     1.0000   1.0000   1.0000   1.0000   1.0000   1.0000   1.1016   0.1850
     0.0000   0.0000   0.0000   0.0000   0.0000   0.0000   0.0000   0.0000
     0.0000   0.0000   0.0000   0.0000   0.0000   0.0000   0.0000   0.0000

          k = 0.3436 0.3436-0.3804 (   827 PWs)   bands (ev):

   -80.9832 -77.9155 -44.4860 -44.3640 -44.3173 -41.4724 -41.4486 -41.4177
    -4.0802  -3.8346   8.0176   8.1853   9.1258   9.5472  10.3046  11.2364
    12.3174  13.4385  13.5368  14.3379  14.3727  14.5847  15.6662  15.8762
    17.1688  17.3739  20.4508  22.7944  26.8485  27.3558  27.3641  29.7084
    31.8177  32.9721  33.7976  36.0134  37.2240  41.3239  42.0680  42.7380

     occupation numbers 
     1.0000   1.0000   1.0000   1.0000   1.0000   1.0000   1.0000   1.0000
     1.0000   1.0000   1.0000   1.0000   1.0000   1.0000   1.0000   1.0000
     1.0000   1.0000   1.0000   1.0000   1.0000   1.0000   0.8878   0.0794
     0.0000   0.0000   0.0000   0.0000   0.0000   0.0000   0.0000   0.0000
     0.0000   0.0000   0.0000   0.0000   0.0000   0.0000   0.0000   0.0000

          k =-0.9910 0.8192 0.0951 (   834 PWs)   bands (ev):

   -80.9809 -77.9129 -44.4828 -44.3743 -44.3330 -41.4843 -41.4449 -41.4359
    -3.6470  -3.6352   7.4842   8.3399   9.0393   9.5548   9.9092  10.1032
    12.7303  13.3777  13.7319  14.2402  14.3251  14.9505  15.6357  16.1817
    16.9737  17.6725  21.6597  23.0954  26.0627  26.7759  27.5981  28.3544
    29.6283  31.1927  34.7930  37.4487  38.8137  41.4188  41.5912  42.5748

     occupation numbers 
     1.0000   1.0000   1.0000   1.0000   1.0000   1.0000   1.0000   1.0000
     1.0000   1.0000   1.0000   1.0000   1.0000   1.0000   1.0000   1.0000
     1.0000   1.0000   1.0000   1.0000   1.0000   1.0000   0.9043  -0.0178
     0.0000   0.0000   0.0000   0.0000   0.0000   0.0000   0.0000   0.0000
     0.0000   0.0000   0.0000   0.0000   0.0000   0.0000   0.0000   0.0000

          k =-0.7241 0.7241 0.0000 (   831 PWs)   bands (ev):

   -80.9797 -77.9116 -44.4811 -44.3600 -44.3597 -41.4675 -41.4673 -41.4430
    -3.4793  -3.4793   8.2966   8.3451   8.8778   9.0013   9.2129   9.3935
    13.3490  13.4360  13.4775  14.2310  14.4708  15.4405  15.5676  15.8769
    17.1914  17.3026  23.8724  24.3333  25.1972  25.9852  26.0820  26.4577
    30.3803  30.8282  35.9731  37.1661  39.3442  40.2026  41.4275  41.8100

     occupation numbers 
     1.0000   1.0000   1.0000   1.0000   1.0000   1.0000   1.0000   1.0000
     1.0000   1.0000   1.0000   1.0000   1.0000   1.0000   1.0000   1.0000
     1.0000   1.0000   1.0000   1.0000   1.0000   1.0000   1.0129   0.0000
     0.0000   0.0000   0.0000   0.0000   0.0000   0.0000   0.0000   0.0000
     0.0000   0.0000   0.0000   0.0000   0.0000   0.0000   0.0000   0.0000

          k =-0.5155-0.5155 0.5706 (   824 PWs)   bands (ev):

   -80.9809 -77.9129 -44.4826 -44.3847 -44.3223 -41.4965 -41.4447 -41.4234
    -3.6981  -3.5633   6.8658   8.1341   8.8067   9.9513  10.3341  11.5962
    11.7014  13.6636  13.6722  14.0069  14.1904  14.6433  16.0665  16.1837
    17.5292  17.9047  20.2991  22.4935  25.5659  26.7804  28.3833  28.4975
    30.4865  32.1831  33.8450  37.2300  38.0048  39.7507  42.9608  43.7196

     occupation numbers 
     1.0000   1.0000   1.0000   1.0000   1.0000   1.0000   1.0000   1.0000
     1.0000   1.0000   1.0000   1.0000   1.0000   1.0000   1.0000   1.0000
     1.0000   1.0000   1.0000   1.0000   1.0000   1.0000  -0.1923  -0.0127
     0.0000   0.0000   0.0000   0.0000   0.0000   0.0000   0.0000   0.0000
     0.0000   0.0000   0.0000   0.0000   0.0000   0.0000   0.0000   0.0000

          k = 0.0767 0.0767 0.0767 (   808 PWs)   bands (ev):

   -80.9900 -77.9233 -44.4947 -44.3020 -44.3020 -41.4595 -41.3999 -41.3999
    -5.2605  -4.2746   6.5698  10.3715  10.3715  10.6040  12.3773  12.3773
    12.5280  12.8829  12.8829  14.0166  14.0166  14.7795  15.1179  15.1179
    17.1764  17.1764  17.7327  21.8628  24.5981  30.1738  32.6874  32.6874
    34.1358  36.1657  36.1657  38.4249  39.0823  39.8314  39.8314  41.2236

     occupation numbers 
     1.0000   1.0000   1.0000   1.0000   1.0000   1.0000   1.0000   1.0000
     1.0000   1.0000   1.0000   1.0000   1.0000   1.0000   1.0000   1.0000
     1.0000   1.0000   1.0000   1.0000   1.0000   1.0000   1.0009   1.1426
     0.0000   0.0000   0.0000   0.0000   0.0000   0.0000   0.0000   0.0000
     0.0000   0.0000   0.0000   0.0000   0.0000   0.0000   0.0000   0.0000

          k = 0.3436-0.0184-0.0184 (   827 PWs)   bands (ev):

   -80.9877 -77.9207 -44.4920 -44.3228 -44.3073 -41.4560 -41.4242 -41.4059
    -4.8849  -4.1555   7.1680   9.4840  10.1441  10.3452  11.1003  11.9279
    12.4414  13.2529  13.4022  13.7633  13.9510  14.8632  15.2728  15.3594
    16.4163  17.3041  19.5921  22.7357  25.0797  29.6128  29.9201  32.4426
    33.0198  33.2410  34.5829  38.2214  38.8045  38.9808  41.7533  42.6025

     occupation numbers 
     1.0000   1.0000   1.0000   1.0000   1.0000   1.0000   1.0000   1.0000
     1.0000   1.0000   1.0000   1.0000   1.0000   1.0000   1.0000   1.0000
     1.0000   1.0000   1.0000   1.0000   1.0000   1.0000   1.0314   0.9750
     0.0000   0.0000   0.0000   0.0000   0.0000   0.0000   0.0000   0.0000
     0.0000   0.0000   0.0000   0.0000   0.0000   0.0000   0.0000   0.0000

          k =-0.9910 0.4571 0.4571 (   819 PWs)   bands (ev):

   -80.9831 -77.9155 -44.4858 -44.3636 -44.3172 -41.4721 -41.4486 -41.4175
    -4.1391  -3.7669   7.7776   8.2159   8.9070  10.2194  10.2591  11.4166
    12.0765  13.5270  13.7426  13.9509  14.2199  14.5638  15.8312  15.8938
    16.6099  17.2919  21.8277  22.8554  26.4022  26.8534  27.2979  29.4297
    32.0593  32.2949  33.3221  36.2237  40.4499  40.8282  41.3710  43.7367

     occupation numbers 
     1.0000   1.0000   1.0000   1.0000   1.0000   1.0000   1.0000   1.0000
     1.0000   1.0000   1.0000   1.0000   1.0000   1.0000   1.0000   1.0000
     1.0000   1.0000   1.0000   1.0000   1.0000   1.0000   0.4487   0.0720
     0.0000   0.0000   0.0000   0.0000   0.0000   0.0000   0.0000   0.0000
     0.0000   0.0000   0.0000   0.0000   0.0000   0.0000   0.0000   0.0000

          k =-0.7241 0.3620 0.3620 (   826 PWs)   bands (ev):

   -80.9809 -77.9129 -44.4828 -44.3847 -44.3221 -41.4965 -41.4449 -41.4233
    -3.6676  -3.5981   7.2840   7.9748   8.8305   9.5179  10.1575  11.1236
    12.1143  13.6715  13.8585  14.1289  14.5768  14.6513  16.0567  16.2152
    17.1516  17.2343  21.8602  23.3798  24.4330  25.6398  28.1950  28.3503
    31.2978  32.9657  33.0046  35.1211  39.4607  43.0342  43.6434  43.6815

     occupation numbers 
     1.0000   1.0000   1.0000   1.0000   1.0000   1.0000   1.0000   1.0000
     1.0000   1.0000   1.0000   1.0000   1.0000   1.0000   1.0000   1.0000
     1.0000   1.0000   1.0000   1.0000   1.0000   1.0000  -0.1823  -0.0180
     0.0000   0.0000   0.0000   0.0000   0.0000   0.0000   0.0000   0.0000
     0.0000   0.0000   0.0000   0.0000   0.0000   0.0000   0.0000   0.0000

          k =-0.4571 0.2669 0.2669 (   824 PWs)   bands (ev):

   -80.9832 -77.9155 -44.4859 -44.3640 -44.3174 -41.4724 -41.4486 -41.4177
    -4.1542  -3.7555   8.1972   8.2499   8.8546   9.4717  10.4192  11.0434
    12.3788  13.5181  13.5299  14.3069  14.5059  14.5893  15.6812  15.9111
    16.9847  17.2757  20.6324  23.3303  26.3897  26.8815  27.3048  30.0514
    32.1844  33.4690  33.8271  34.4773  37.1852  42.0097  42.1969  43.1560

     occupation numbers 
     1.0000   1.0000   1.0000   1.0000   1.0000   1.0000   1.0000   1.0000
     1.0000   1.0000   1.0000   1.0000   1.0000   1.0000   1.0000   1.0000
     1.0000   1.0000   1.0000   1.0000   1.0000   1.0000   0.8461   0.0614
     0.0000   0.0000   0.0000   0.0000   0.0000   0.0000   0.0000   0.0000
     0.0000   0.0000   0.0000   0.0000   0.0000   0.0000   0.0000   0.0000

          k = 0.2485 0.2485-0.1135 (   815 PWs)   bands (ev):

   -80.9877 -77.9207 -44.4920 -44.3224 -44.3069 -41.4560 -41.4239 -41.4057
    -4.8183  -4.2361   7.3936   9.3593  10.1217  10.6348  10.7583  11.3644
    12.6526  13.1433  13.1673  14.1099  14.5199  14.7541  15.2147  15.5408
    16.7753  16.8772  19.5255  22.3555  25.5880  28.8322  30.4312  31.3818
    33.3583  35.0011  35.6188  36.2195  37.8070  39.0394  42.1306  43.2710

     occupation numbers 
     1.0000   1.0000   1.0000   1.0000   1.0000   1.0000   1.0000   1.0000
     1.0000   1.0000   1.0000   1.0000   1.0000   1.0000   1.0000   1.0000
     1.0000   1.0000   1.0000   1.0000   1.0000   1.0000   1.0227   0.7426
     0.0000   0.0000   0.0000   0.0000   0.0000   0.0000   0.0000   0.0000
     0.0000   0.0000   0.0000   0.0000   0.0000   0.0000   0.0000   0.0000

          k =-1.0861 0.7241 0.3620 (   819 PWs)   bands (ev):

   -80.9843 -77.9168 -44.4873 -44.3495 -44.3184 -41.4555 -41.4505 -41.4190
    -4.2557  -3.9640   7.9539   8.4797   9.5465   9.9451  10.4113  10.7554
    12.7187  13.0727  13.6260  13.9904  14.3454  15.0181  15.1265  15.9334
    16.7967  16.9994  21.2963  22.6901  26.9210  28.0650  28.2726  29.1927
    31.1801  31.6610  35.7367  36.2980  39.3871  39.8785  42.1146  43.3250

     occupation numbers 
     1.0000   1.0000   1.0000   1.0000   1.0000   1.0000   1.0000   1.0000
     1.0000   1.0000   1.0000   1.0000   1.0000   1.0000   1.0000   1.0000
     1.0000   1.0000   1.0000   1.0000   1.0000   1.0000   1.1397   0.0931
     0.0000   0.0000   0.0000   0.0000   0.0000   0.0000   0.0000   0.0000
     0.0000   0.0000   0.0000   0.0000   0.0000   0.0000   0.0000   0.0000

          k =-0.8192 0.6289 0.2669 (   827 PWs)   bands (ev):

   -80.9808 -77.9129 -44.4827 -44.3740 -44.3327 -41.4840 -41.4449 -41.4357
    -3.7039  -3.5764   7.7030   8.0599   8.9711   9.5930   9.9321  10.1471
    12.7069  13.4434  13.7381  14.2689  14.3342  14.9477  15.7589  16.1761
    17.0682  17.1587  22.5660  23.0753  25.6468  26.3710  27.5574  27.8575
    30.2270  31.3928  34.7203  36.4874  39.8738  41.4894  42.5811  42.9539

     occupation numbers 
     1.0000   1.0000   1.0000   1.0000   1.0000   1.0000   1.0000   1.0000
     1.0000   1.0000   1.0000   1.0000   1.0000   1.0000   1.0000   1.0000
     1.0000   1.0000   1.0000   1.0000   1.0000   1.0000   0.4962  -0.0175
     0.0000   0.0000   0.0000   0.0000   0.0000   0.0000   0.0000   0.0000
     0.0000   0.0000   0.0000   0.0000   0.0000   0.0000   0.0000   0.0000

          k =-0.5522 0.5338 0.1718 (   827 PWs)   bands (ev):

   -80.9809 -77.9129 -44.4826 -44.3742 -44.3327 -41.4842 -41.4448 -41.4357
    -3.6854  -3.5983   7.6039   8.4821   9.0430   9.2528   9.8758  10.0473
    12.8464  13.4351  13.7605  14.1956  14.3453  14.8418  15.6343  16.1886
    16.8280  17.8007  21.8172  23.5346  25.8713  26.5600  27.5160  28.2448
    30.0059  30.6427  35.4439  36.1699  39.4684  41.0398  41.3739  43.8510

     occupation numbers 
     1.0000   1.0000   1.0000   1.0000   1.0000   1.0000   1.0000   1.0000
     1.0000   1.0000   1.0000   1.0000   1.0000   1.0000   1.0000   1.0000
     1.0000   1.0000   1.0000   1.0000   1.0000   1.0000   0.8860  -0.0216
     0.0000   0.0000   0.0000   0.0000   0.0000   0.0000   0.0000   0.0000
     0.0000   0.0000   0.0000   0.0000   0.0000   0.0000   0.0000   0.0000

          k =-0.6106-0.6106 0.8375 (   817 PWs)   bands (ev):

   -80.9831 -77.9155 -44.4856 -44.3637 -44.3171 -41.4721 -41.4484 -41.4174
    -3.9711  -3.9443   7.7943   8.1348   9.1434  10.0646  10.1890  11.4924
    12.1264  13.4317  13.5715  14.0631  14.2744  14.6312  15.7269  15.8376
    17.0801  17.3861  20.9369  22.4141  26.8324  27.3783  28.2596  28.7188
    31.6946  32.2241  33.8850  37.3177  39.0824  40.0671  40.7142  42.5800

     occupation numbers 
     1.0000   1.0000   1.0000   1.0000   1.0000   1.0000   1.0000   1.0000
     1.0000   1.0000   1.0000   1.0000   1.0000   1.0000   1.0000   1.0000
     1.0000   1.0000   1.0000   1.0000   1.0000   1.0000   0.7247   0.1118
     0.0000   0.0000   0.0000   0.0000   0.0000   0.0000   0.0000   0.0000
     0.0000   0.0000   0.0000   0.0000   0.0000   0.0000   0.0000   0.0000

          k =-0.3436-0.7057 0.7424 (   829 PWs)   bands (ev):

   -80.9809 -77.9129 -44.4827 -44.3741 -44.3328 -41.4841 -41.4448 -41.4358
    -3.6737  -3.6068   7.5078   8.1915   9.0229   9.6296   9.9715  10.1752
    12.6422  13.3854  13.7254  14.2415  14.3797  14.9790  15.7076  16.1680
    17.0767  17.3684  21.9449  22.9597  25.9469  26.6976  27.6191  28.0859
    29.8863  31.5108  34.5094  37.2658  39.5487  41.6394  41.9970  42.1600

     occupation numbers 
     1.0000   1.0000   1.0000   1.0000   1.0000   1.0000   1.0000   1.0000
     1.0000   1.0000   1.0000   1.0000   1.0000   1.0000   1.0000   1.0000
     1.0000   1.0000   1.0000   1.0000   1.0000   1.0000   0.7288  -0.0164
     0.0000   0.0000   0.0000   0.0000   0.0000   0.0000   0.0000   0.0000
     0.0000   0.0000   0.0000   0.0000   0.0000   0.0000   0.0000   0.0000

          k =-0.0767-0.8008 0.6473 (   846 PWs)   bands (ev):

   -80.9798 -77.9116 -44.4814 -44.3603 -44.3603 -41.4678 -41.4677 -41.4432
    -3.4794  -3.4794   8.3010   8.3331   8.9020   8.9629   9.2226   9.3867
    13.3482  13.4336  13.4774  14.2316  14.4645  15.4561  15.5449  15.8810
    17.1982  17.2909  24.0569  24.0705  25.3857  25.7429  26.2396  26.4147
    30.4545  30.7267  36.4903  36.5024  39.8013  39.9471  41.5430  41.6336

     occupation numbers 
     1.0000   1.0000   1.0000   1.0000   1.0000   1.0000   1.0000   1.0000
     1.0000   1.0000   1.0000   1.0000   1.0000   1.0000   1.0000   1.0000
     1.0000   1.0000   1.0000   1.0000   1.0000   1.0000   1.0358   0.0000
     0.0000   0.0000   0.0000   0.0000   0.0000   0.0000   0.0000   0.0000
     0.0000   0.0000   0.0000   0.0000   0.0000   0.0000   0.0000   0.0000

          k =-0.4387-0.4387 0.6473 (   831 PWs)   bands (ev):

   -80.9809 -77.9129 -44.4830 -44.3848 -44.3223 -41.4966 -41.4451 -41.4234
    -3.6900  -3.5729   6.9790   8.0951   8.8154  10.0090  10.0243  11.4383
    11.8764  13.6678  13.7284  14.1810  14.1944  14.6351  16.0641  16.1954
    17.4138  17.6398  20.7866  22.7362  25.2515  26.4640  28.3054  28.4440
    30.7051  32.3839  33.6155  36.6858  37.8562  41.2009  43.2260  43.6995

     occupation numbers 
     1.0000   1.0000   1.0000   1.0000   1.0000   1.0000   1.0000   1.0000
     1.0000   1.0000   1.0000   1.0000   1.0000   1.0000   1.0000   1.0000
     1.0000   1.0000   1.0000   1.0000   1.0000   1.0000  -0.2070  -0.0156
     0.0000   0.0000   0.0000   0.0000   0.0000   0.0000   0.0000   0.0000
     0.0000   0.0000   0.0000   0.0000   0.0000   0.0000   0.0000   0.0000

          k = 0.1534 0.1534 0.1534 (   817 PWs)   bands (ev):

   -80.9900 -77.9233 -44.4949 -44.3019 -44.3019 -41.4596 -41.3999 -41.3999
    -5.0737  -4.5077   7.2315   9.4146  10.5450  10.5450  11.8590  11.8590
    12.7908  12.8959  12.8959  14.5815  14.5815  14.8069  15.0901  15.0901
    16.9467  16.9467  18.6679  21.0055  25.4685  28.3576  33.3540  33.3540
    35.4251  35.4251  36.0039  38.3292  39.2389  39.3228  39.3228  40.4553

     occupation numbers 
     1.0000   1.0000   1.0000   1.0000   1.0000   1.0000   1.0000   1.0000
     1.0000   1.0000   1.0000   1.0000   1.0000   1.0000   1.0000   1.0000
     1.0000   1.0000   1.0000   1.0000   1.0000   1.0000   1.0033   1.1634
     0.0000   0.0000   0.0000   0.0000   0.0000   0.0000   0.0000   0.0000
     0.0000   0.0000   0.0000   0.0000   0.0000   0.0000   0.0000   0.0000

          k =-1.1812 0.6289 0.6289 (   829 PWs)   bands (ev):

   -80.9877 -77.9208 -44.4920 -44.3229 -44.3072 -41.4561 -41.4242 -41.4059
    -4.7039  -4.3649   7.7390   8.7906  10.3270  10.4420  10.7498  11.7181
    12.5961  13.2692  13.3998  13.8787  14.0698  14.8618  15.3121  15.3658
    16.3063  17.2314  20.4700  21.6571  26.2035  28.1467  30.2057  31.9511
    33.4013  33.7480  34.3018  37.9353  39.6508  40.3682  40.7935  42.1282

     occupation numbers 
     1.0000   1.0000   1.0000   1.0000   1.0000   1.0000   1.0000   1.0000
     1.0000   1.0000   1.0000   1.0000   1.0000   1.0000   1.0000   1.0000
     1.0000   1.0000   1.0000   1.0000   1.0000   1.0000   1.0404   0.9486
     0.0000   0.0000   0.0000   0.0000   0.0000   0.0000   0.0000   0.0000
     0.0000   0.0000   0.0000   0.0000   0.0000   0.0000   0.0000   0.0000

          k =-0.9143 0.5338 0.5338 (   815 PWs)   bands (ev):

   -80.9831 -77.9155 -44.4856 -44.3635 -44.3171 -41.4720 -41.4484 -41.4175
    -4.0552  -3.8558   7.6952   8.1490   9.0593  10.1550  10.4181  11.5797
    11.9643  13.5456  13.5709  13.9748  14.1072  14.6306  15.8211  15.8454
    16.7098  17.4380  21.8286  22.1791  26.7958  27.2835  27.5948  28.9818
    31.7894  31.8704  33.7085  37.8383  39.3495  40.3906  41.4465  42.3890

     occupation numbers 
     1.0000   1.0000   1.0000   1.0000   1.0000   1.0000   1.0000   1.0000
     1.0000   1.0000   1.0000   1.0000   1.0000   1.0000   1.0000   1.0000
     1.0000   1.0000   1.0000   1.0000   1.0000   1.0000   0.4315   0.1099
     0.0000   0.0000   0.0000   0.0000   0.0000   0.0000   0.0000   0.0000
     0.0000   0.0000   0.0000   0.0000   0.0000   0.0000   0.0000   0.0000

          k =-0.7057-0.7057 1.1045 (   821 PWs)   bands (ev):

   -80.9877 -77.9207 -44.4918 -44.3226 -44.3070 -41.4559 -41.4241 -41.4058
    -4.6079  -4.4678   8.0412   8.5229  10.3521  10.5867  10.6010  11.4252
    12.6832  13.1770  13.3555  13.9475  14.4082  14.8082  15.2531  15.4464
    16.5133  17.0283  20.5286  21.4334  26.7563  27.5100  30.6650  31.0965
    33.7521  34.5095  34.5954  37.4237  38.0964  40.6541  41.9284  42.2924

     occupation numbers 
     1.0000   1.0000   1.0000   1.0000   1.0000   1.0000   1.0000   1.0000
     1.0000   1.0000   1.0000   1.0000   1.0000   1.0000   1.0000   1.0000
     1.0000   1.0000   1.0000   1.0000   1.0000   1.0000   1.0556   0.8568
     0.0000   0.0000   0.0000   0.0000   0.0000   0.0000   0.0000   0.0000
     0.0000   0.0000   0.0000   0.0000   0.0000   0.0000   0.0000   0.0000

          k =-0.4387-0.8008 1.0094 (   814 PWs)   bands (ev):

   -80.9843 -77.9168 -44.4871 -44.3493 -44.3184 -41.4554 -41.4503 -41.4190
    -4.1123  -4.1120   8.0777   8.2792   9.6962   9.9479  10.4495  10.6890
    12.8045  12.9290  13.6733  13.9244  14.3708  14.9874  15.1773  15.9627
    16.7638  16.9518  21.9043  22.0585  27.6034  27.7998  28.2554  28.5794
    31.3981  31.6275  35.9047  35.9507  40.6313  40.7653  41.8929  41.9732

     occupation numbers 
     1.0000   1.0000   1.0000   1.0000   1.0000   1.0000   1.0000   1.0000
     1.0000   1.0000   1.0000   1.0000   1.0000   1.0000   1.0000   1.0000
     1.0000   1.0000   1.0000   1.0000   1.0000   1.0000   1.1568   0.0811
     0.0000   0.0000   0.0000   0.0000   0.0000   0.0000   0.0000   0.0000
     0.0000   0.0000   0.0000   0.0000   0.0000   0.0000   0.0000   0.0000

          k =-0.2301-0.2301-0.2301 (   828 PWs)   bands (ev):

   -80.9900 -77.9234 -44.4952 -44.3020 -44.3020 -41.4599 -41.4000 -41.4000
    -4.8087  -4.7955   8.1284   8.3220  10.6750  10.6750  11.5989  11.5989
    12.8631  12.9003  12.9003  14.8078  14.8620  14.8620  15.0563  15.0563
    16.8076  16.8076  19.7441  19.9717  26.6278  26.8815  34.2699  34.2699
    34.4231  34.4231  37.3870  37.4170  39.5151  39.5151  39.7384  39.7384

     occupation numbers 
     1.0000   1.0000   1.0000   1.0000   1.0000   1.0000   1.0000   1.0000
     1.0000   1.0000   1.0000   1.0000   1.0000   1.0000   1.0000   1.0000
     1.0000   1.0000   1.0000   1.0000   1.0000   1.0000   1.0069   1.1594
     0.0000   0.0000   0.0000   0.0000   0.0000   0.0000   0.0000   0.0000
     0.0000   0.0000   0.0000   0.0000   0.0000   0.0000   0.0000   0.0000

     the Fermi energy is    15.7167 ev
     (compare with:    15.7920 eV, computed in scf)

     Writing all to output data dir ./tmp/CoO.save/ :
     XML data file, pseudopotentials, collected wavefunctions

     init_run     :      0.96s CPU      0.93s WALL (       1 calls)
     electrons    :     44.70s CPU     45.51s WALL (       1 calls)

     Called by init_run:
     wfcinit      :      0.00s CPU      0.00s WALL (       1 calls)
     wfcinit:atom :      0.01s CPU      0.01s WALL (      64 calls)
     wfcinit:wfcr :      2.01s CPU      1.97s WALL (      64 calls)
     potinit      :      0.43s CPU      0.43s WALL (       1 calls)
     hinit0       :      0.43s CPU      0.40s WALL (       1 calls)

     Called by electrons:
     c_bands      :     44.56s CPU     45.38s WALL (       1 calls)
     v_of_rho     :      0.09s CPU      0.11s WALL (       1 calls)
     v_h          :      0.00s CPU      0.00s WALL (       1 calls)
     v_xc         :      0.08s CPU      0.11s WALL (       1 calls)
     newd         :      0.07s CPU      0.09s WALL (       1 calls)
     PAW_pot      :      0.14s CPU      0.13s WALL (       1 calls)

     Called by c_bands:
     init_us_2    :      0.01s CPU      0.01s WALL (      64 calls)
     cegterg      :     42.44s CPU     43.30s WALL (     123 calls)

     Called by sum_band:

     Called by *egterg:
     cdiaghg      :      6.84s CPU      6.72s WALL (    1985 calls)
     cegterg:over :      3.51s CPU      3.49s WALL (    1921 calls)
     cegterg:upda :      1.40s CPU      1.36s WALL (    1921 calls)
     cegterg:last :      3.81s CPU      4.95s WALL (     900 calls)
     h_psi        :     25.94s CPU     25.87s WALL (    2108 calls)
     s_psi        :      1.08s CPU      1.07s WALL (    2108 calls)
     g_psi        :      0.07s CPU      0.07s WALL (    1921 calls)

     Called by h_psi:
     h_psi:calbec :      1.40s CPU      1.41s WALL (    2108 calls)
     vloc_psi     :     23.41s CPU     23.33s WALL (    2108 calls)
     add_vuspsi   :      1.07s CPU      1.08s WALL (    2108 calls)

     General routines
     calbec       :      1.39s CPU      1.40s WALL (    2108 calls)
     fft          :      0.28s CPU      0.26s WALL (      23 calls)
     ffts         :      0.18s CPU      0.17s WALL (       2 calls)
     fftw         :     19.35s CPU     19.28s WALL (   81336 calls)
     interpolate  :      0.19s CPU      0.18s WALL (       2 calls)
     davcio       :      0.02s CPU      0.02s WALL (     128 calls)

     Parallel routines

     PAW routines
     PAW_pot      :      0.14s CPU      0.13s WALL (       1 calls)

     PWSCF        :     45.97s CPU     46.83s WALL


   This run was terminated on:  16: 6:15  12Jul2025            

=------------------------------------------------------------------------------=
   JOB DONE.
=------------------------------------------------------------------------------=
